% Model:              all.mph
% Version:            COMSOL 5.6.0.341
% Date:               May 31 2021, 23:51
% Dimension:          0
% Nodes:              1
% Expressions:        161
% Description:        , , , , , Mag_EF, Est_ef
% r1 @ phi1=65, r1=0.135  phi1 (deg) @ phi1=65, r1=0.135 phi2 (deg) @ phi1=65, r1=0.135 phi3 (deg) @ phi1=65, r1=0.135 phi4 (deg) @ phi1=65, r1=0.135 sens2.gobj1 @ phi1=65, r1=0.135 sens2.gobj2 @ phi1=65, r1=0.135 r1 @ phi1=60, r1=0.135   phi1 (deg) @ phi1=60, r1=0.135 phi2 (deg) @ phi1=60, r1=0.135 phi3 (deg) @ phi1=60, r1=0.135 phi4 (deg) @ phi1=60, r1=0.135 sens2.gobj1 @ phi1=60, r1=0.135 sens2.gobj2 @ phi1=60, r1=0.135 r1 @ phi1=55, r1=0.135   phi1 (deg) @ phi1=55, r1=0.135 phi2 (deg) @ phi1=55, r1=0.135 phi3 (deg) @ phi1=55, r1=0.135 phi4 (deg) @ phi1=55, r1=0.135 sens2.gobj1 @ phi1=55, r1=0.135 sens2.gobj2 @ phi1=55, r1=0.135 r1 @ phi1=70, r1=0.12    phi1 (deg) @ phi1=70, r1=0.12 phi2 (deg) @ phi1=70, r1=0.12 phi3 (deg) @ phi1=70, r1=0.12 phi4 (deg) @ phi1=70, r1=0.12 sens2.gobj1 @ phi1=70, r1=0.12 sens2.gobj2 @ phi1=70, r1=0.12 r1 @ phi1=65, r1=0.12    phi1 (deg) @ phi1=65, r1=0.12 phi2 (deg) @ phi1=65, r1=0.12 phi3 (deg) @ phi1=65, r1=0.12 phi4 (deg) @ phi1=65, r1=0.12 sens2.gobj1 @ phi1=65, r1=0.12 sens2.gobj2 @ phi1=65, r1=0.12 r1 @ phi1=60, r1=0.12    phi1 (deg) @ phi1=60, r1=0.12 phi2 (deg) @ phi1=60, r1=0.12 phi3 (deg) @ phi1=60, r1=0.12 phi4 (deg) @ phi1=60, r1=0.12 sens2.gobj1 @ phi1=60, r1=0.12 sens2.gobj2 @ phi1=60, r1=0.12 r1 @ phi1=75, r1=0.11    phi1 (deg) @ phi1=75, r1=0.11 phi2 (deg) @ phi1=75, r1=0.11 phi3 (deg) @ phi1=75, r1=0.11 phi4 (deg) @ phi1=75, r1=0.11 sens2.gobj1 @ phi1=75, r1=0.11 sens2.gobj2 @ phi1=75, r1=0.11 r1 @ phi1=70, r1=0.11    phi1 (deg) @ phi1=70, r1=0.11 phi2 (deg) @ phi1=70, r1=0.11 phi3 (deg) @ phi1=70, r1=0.11 phi4 (deg) @ phi1=70, r1=0.11 sens2.gobj1 @ phi1=70, r1=0.11 sens2.gobj2 @ phi1=70, r1=0.11 r1 @ phi1=65, r1=0.11    phi1 (deg) @ phi1=65, r1=0.11 phi2 (deg) @ phi1=65, r1=0.11 phi3 (deg) @ phi1=65, r1=0.11 phi4 (deg) @ phi1=65, r1=0.11 sens2.gobj1 @ phi1=65, r1=0.11 sens2.gobj2 @ phi1=65, r1=0.11 r1 @ phi1=65, r1=0.1     phi1 (deg) @ phi1=65, r1=0.1 phi2 (deg) @ phi1=65, r1=0.1 phi3 (deg) @ phi1=65, r1=0.1 phi4 (deg) @ phi1=65, r1=0.1 sens2.gobj1 @ phi1=65, r1=0.1 sens2.gobj2 @ phi1=65, r1=0.1 r1 @ phi1=70, r1=0.1     phi1 (deg) @ phi1=70, r1=0.1 phi2 (deg) @ phi1=70, r1=0.1 phi3 (deg) @ phi1=70, r1=0.1 phi4 (deg) @ phi1=70, r1=0.1 sens2.gobj1 @ phi1=70, r1=0.1 sens2.gobj2 @ phi1=70, r1=0.1 r1 @ phi1=75, r1=0.1     phi1 (deg) @ phi1=75, r1=0.1 phi2 (deg) @ phi1=75, r1=0.1 phi3 (deg) @ phi1=75, r1=0.1 phi4 (deg) @ phi1=75, r1=0.1 sens2.gobj1 @ phi1=75, r1=0.1 sens2.gobj2 @ phi1=75, r1=0.1 r1 @ phi1=80, r1=0.1     phi1 (deg) @ phi1=80, r1=0.1 phi2 (deg) @ phi1=80, r1=0.1 phi3 (deg) @ phi1=80, r1=0.1 phi4 (deg) @ phi1=80, r1=0.1 sens2.gobj1 @ phi1=80, r1=0.1 sens2.gobj2 @ phi1=80, r1=0.1 r1 @ phi1=75, r1=0.07    phi1 (deg) @ phi1=75, r1=0.07 phi2 (deg) @ phi1=75, r1=0.07 phi3 (deg) @ phi1=75, r1=0.07 phi4 (deg) @ phi1=75, r1=0.07 sens2.gobj1 @ phi1=75, r1=0.07 sens2.gobj2 @ phi1=75, r1=0.07 r1 @ phi1=80, r1=0.07    phi1 (deg) @ phi1=80, r1=0.07 phi2 (deg) @ phi1=80, r1=0.07 phi3 (deg) @ phi1=80, r1=0.07 phi4 (deg) @ phi1=80, r1=0.07 sens2.gobj1 @ phi1=80, r1=0.07 sens2.gobj2 @ phi1=80, r1=0.07 r1 @ phi1=85, r1=0.07    phi1 (deg) @ phi1=85, r1=0.07 phi2 (deg) @ phi1=85, r1=0.07 phi3 (deg) @ phi1=85, r1=0.07 phi4 (deg) @ phi1=85, r1=0.07 sens2.gobj1 @ phi1=85, r1=0.07 sens2.gobj2 @ phi1=85, r1=0.07 r1 @ phi1=70, r1=0.08    phi1 (deg) @ phi1=70, r1=0.08 phi2 (deg) @ phi1=70, r1=0.08 phi3 (deg) @ phi1=70, r1=0.08 phi4 (deg) @ phi1=70, r1=0.08 sens2.gobj1 @ phi1=70, r1=0.08 sens2.gobj2 @ phi1=70, r1=0.08 r1 @ phi1=75, r1=0.08    phi1 (deg) @ phi1=75, r1=0.08 phi2 (deg) @ phi1=75, r1=0.08 phi3 (deg) @ phi1=75, r1=0.08 phi4 (deg) @ phi1=75, r1=0.08 sens2.gobj1 @ phi1=75, r1=0.08 sens2.gobj2 @ phi1=75, r1=0.08 r1 @ phi1=80, r1=0.08    phi1 (deg) @ phi1=80, r1=0.08 phi2 (deg) @ phi1=80, r1=0.08 phi3 (deg) @ phi1=80, r1=0.08 phi4 (deg) @ phi1=80, r1=0.08 sens2.gobj1 @ phi1=80, r1=0.08 sens2.gobj2 @ phi1=80, r1=0.08 r1 @ phi1=85, r1=0.08    phi1 (deg) @ phi1=85, r1=0.08 phi2 (deg) @ phi1=85, r1=0.08 phi3 (deg) @ phi1=85, r1=0.08 phi4 (deg) @ phi1=85, r1=0.08 sens2.gobj1 @ phi1=85, r1=0.08 sens2.gobj2 @ phi1=85, r1=0.08 r1 @ phi1=70, r1=0.09    phi1 (deg) @ phi1=70, r1=0.09 phi2 (deg) @ phi1=70, r1=0.09 phi3 (deg) @ phi1=70, r1=0.09 phi4 (deg) @ phi1=70, r1=0.09 sens2.gobj1 @ phi1=70, r1=0.09 sens2.gobj2 @ phi1=70, r1=0.09 r1 @ phi1=75, r1=0.09    phi1 (deg) @ phi1=75, r1=0.09 phi2 (deg) @ phi1=75, r1=0.09 phi3 (deg) @ phi1=75, r1=0.09 phi4 (deg) @ phi1=75, r1=0.09 sens2.gobj1 @ phi1=75, r1=0.09 sens2.gobj2 @ phi1=75, r1=0.09 r1 @ phi1=80, r1=0.09    phi1 (deg) @ phi1=80, r1=0.09 phi2 (deg) @ phi1=80, r1=0.09 phi3 (deg) @ phi1=80, r1=0.09 phi4 (deg) @ phi1=80, r1=0.09 sens2.gobj1 @ phi1=80, r1=0.09 sens2.gobj2 @ phi1=80, r1=0.09
0.135                     65                       65                       65                       17.29948420684712        0.9729039872667463       0.8176547101725029       0.135                    59.99999999999999        59.99999999999999        59.99999999999999        36.86989764584401        0.9728645050716526       0.8238453011971211       0.135                    55                       55                       55                       49.24339138134695        0.9764041123338313       0.8433473523793228       0.12                     70                       70                       70                       23.657611205293232       0.9789544248494992       0.8572483319035942       0.12                     65                       65                       65                       40.99529283787017        0.982914158101304        0.8683046295407212       0.12                     59.99999999999999        59.99999999999999        59.99999999999999        53.13010235415599        0.9829708424674651       0.8769377163465992       0.11                     75                       75                       75                       18.372286688386005       0.9773147845722627       0.8835278661199361       0.11                     70                       70                       70                       38.4983227229106         0.9747871208724812       0.8771884427235798       0.11                     65                       65                       65                       51.57935351672225        0.978530647251065        0.8920332742507361       0.1                      65                       65                       65                       60.78443301276113        0.969023611278202        0.9013828140893525       0.1                      70                       70                       70                       49.51167819268495        0.9663089716214764       0.8819433223291024       0.1                      75                       75                       75                       35.34383593637885        0.9662386305748342       0.8771924230191245       0.1                      80                       80                       80                       9.58592393746377         0.969371914064854        0.8910234721590562       0.07                     75                       75                       75                       65.43689311437267        0.9147220285533654       0.8592049900198693       0.07                     80                       80                       80                       54.12371842019664        0.9175055786968818       0.8520609619762909       0.07                     85                       85                       85                       40.62195812551437        0.9179685499544353       0.8478288873255312       0.08                     70                       70                       70                       67.50353814207776        0.9344328403895721       0.875939316277895        0.08                     75                       75                       75                       56.69960524827071        0.9380937942556908       0.8674644142311133       0.08                     80                       80                       80                       43.99748338028303        0.9389314398935733       0.8624733258055308       0.08                     85                       85                       85                       26.82929367297876        0.9376139050662021       0.8591460684296267       0.09                     70                       70                       70                       58.93837484035802        0.9534070311462354       0.8801939553549774       0.09                     75                       75                       75                       46.971512147735744       0.9547255158506219       0.87411224834932         0.09                     80                       80                       80                       31.49303823045795        0.9541861418216843       0.8701302548723336
