% Model:              all.mph
% Version:            COMSOL 5.6.0.341
% Date:               May 31 2021, 23:51
% Dimension:          0
% Nodes:              1
% Expressions:        77
% Description:        , , , , , Mag_EF, Est_ef
% r1 @ phi2=75, phi3=65   phi1 (deg) @ phi2=75, phi3=65 phi2 (deg) @ phi2=75, phi3=65 phi3 (deg) @ phi2=75, phi3=65 phi4 (deg) @ phi2=75, phi3=65 sens2.gobj1 @ phi2=75, phi3=65 sens2.gobj2 @ phi2=75, phi3=65 r1 @ phi2=75, phi3=60    phi1 (deg) @ phi2=75, phi3=60 phi2 (deg) @ phi2=75, phi3=60 phi3 (deg) @ phi2=75, phi3=60 phi4 (deg) @ phi2=75, phi3=60 sens2.gobj1 @ phi2=75, phi3=60 sens2.gobj2 @ phi2=75, phi3=60 r1 @ phi2=75, phi3=55    phi1 (deg) @ phi2=75, phi3=55 phi2 (deg) @ phi2=75, phi3=55 phi3 (deg) @ phi2=75, phi3=55 phi4 (deg) @ phi2=75, phi3=55 sens2.gobj1 @ phi2=75, phi3=55 sens2.gobj2 @ phi2=75, phi3=55 r1 @ phi2=75, phi3=50    phi1 (deg) @ phi2=75, phi3=50 phi2 (deg) @ phi2=75, phi3=50 phi3 (deg) @ phi2=75, phi3=50 phi4 (deg) @ phi2=75, phi3=50 sens2.gobj1 @ phi2=75, phi3=50 sens2.gobj2 @ phi2=75, phi3=50 r1 @ phi2=70, phi3=65    phi1 (deg) @ phi2=70, phi3=65 phi2 (deg) @ phi2=70, phi3=65 phi3 (deg) @ phi2=70, phi3=65 phi4 (deg) @ phi2=70, phi3=65 sens2.gobj1 @ phi2=70, phi3=65 sens2.gobj2 @ phi2=70, phi3=65 r1 @ phi2=70, phi3=60    phi1 (deg) @ phi2=70, phi3=60 phi2 (deg) @ phi2=70, phi3=60 phi3 (deg) @ phi2=70, phi3=60 phi4 (deg) @ phi2=70, phi3=60 sens2.gobj1 @ phi2=70, phi3=60 sens2.gobj2 @ phi2=70, phi3=60 r1 @ phi2=70, phi3=55    phi1 (deg) @ phi2=70, phi3=55 phi2 (deg) @ phi2=70, phi3=55 phi3 (deg) @ phi2=70, phi3=55 phi4 (deg) @ phi2=70, phi3=55 sens2.gobj1 @ phi2=70, phi3=55 sens2.gobj2 @ phi2=70, phi3=55 r1 @ phi2=70, phi3=50    phi1 (deg) @ phi2=70, phi3=50 phi2 (deg) @ phi2=70, phi3=50 phi3 (deg) @ phi2=70, phi3=50 phi4 (deg) @ phi2=70, phi3=50 sens2.gobj1 @ phi2=70, phi3=50 sens2.gobj2 @ phi2=70, phi3=50 r1 @ phi2=65, phi3=60    phi1 (deg) @ phi2=65, phi3=60 phi2 (deg) @ phi2=65, phi3=60 phi3 (deg) @ phi2=65, phi3=60 phi4 (deg) @ phi2=65, phi3=60 sens2.gobj1 @ phi2=65, phi3=60 sens2.gobj2 @ phi2=65, phi3=60 r1 @ phi2=65, phi3=55    phi1 (deg) @ phi2=65, phi3=55 phi2 (deg) @ phi2=65, phi3=55 phi3 (deg) @ phi2=65, phi3=55 phi4 (deg) @ phi2=65, phi3=55 sens2.gobj1 @ phi2=65, phi3=55 sens2.gobj2 @ phi2=65, phi3=55 r1 @ phi2=65, phi3=52    phi1 (deg) @ phi2=65, phi3=52 phi2 (deg) @ phi2=65, phi3=52 phi3 (deg) @ phi2=65, phi3=52 phi4 (deg) @ phi2=65, phi3=52 sens2.gobj1 @ phi2=65, phi3=52 sens2.gobj2 @ phi2=65, phi3=52
0.12                      80                       75                       65                       16.023590271144577       0.9827158702850591       0.8549959898901113       0.12                     80                       75                       59.99999999999999        27.89990712188679        0.9819634593694071       0.8513455702408151       0.12                     80                       75                       55                       35.885505581320096       0.9827970047157779       0.8542643775986973       0.12                     80                       75                       50                       42.185140610627954       0.9826735989034062       0.8581747879912699       0.12                     80                       70                       65                       23.139969739146295       0.9821289654656004       0.8538076256963738       0.12                     80                       70                       59.99999999999999        32.630461404118286       0.9825711054550152       0.8528116078136826       0.12                     80                       70                       55                       39.77261307373379        0.9832826336080815       0.8557405597427006       0.12                     80                       70                       50                       45.62285944574           0.9830093790726642       0.8597913516124167       0.12                     80                       65                       59.99999999999999        36.69126167050052        0.9826969705811052       0.8549767731488082       0.12                     80                       65                       55                       43.25674161080129        0.9833577373144706       0.8577886756503793       0.12                     80                       65                       52                       46.66952856948684        0.9832660927453059       0.8601099290802436
