% Model:              all.mph
% Version:            COMSOL 5.6.0.341
% Date:               May 31 2021, 23:52
% Dimension:          0
% Nodes:              1
% Expressions:        28
% Description:        , , , , , Mag_EF, Est_ef
% r1 @ phi3=60, phi1=65, phi2=65 phi1 (deg) @ phi3=60, phi1=65, phi2=65 phi2 (deg) @ phi3=60, phi1=65, phi2=65 phi3 (deg) @ phi3=60, phi1=65, phi2=65 phi4 (deg) @ phi3=60, phi1=65, phi2=65 sens2.gobj1 @ phi3=60, phi1=65, phi2=65 sens2.gobj2 @ phi3=60, phi1=65, phi2=65 r1 @ phi3=55, phi1=65, phi2=65 phi1 (deg) @ phi3=55, phi1=65, phi2=65 phi2 (deg) @ phi3=55, phi1=65, phi2=65 phi3 (deg) @ phi3=55, phi1=65, phi2=65 phi4 (deg) @ phi3=55, phi1=65, phi2=65 sens2.gobj1 @ phi3=55, phi1=65, phi2=65 sens2.gobj2 @ phi3=55, phi1=65, phi2=65 r1 @ phi3=65, phi1=65, phi2=65 phi1 (deg) @ phi3=65, phi1=65, phi2=65 phi2 (deg) @ phi3=65, phi1=65, phi2=65 phi3 (deg) @ phi3=65, phi1=65, phi2=65 phi4 (deg) @ phi3=65, phi1=65, phi2=65 sens2.gobj1 @ phi3=65, phi1=65, phi2=65 sens2.gobj2 @ phi3=65, phi1=65, phi2=65 r1 @ phi3=60, phi1=60, phi2=60 phi1 (deg) @ phi3=60, phi1=60, phi2=60 phi2 (deg) @ phi3=60, phi1=60, phi2=60 phi3 (deg) @ phi3=60, phi1=60, phi2=60 phi4 (deg) @ phi3=60, phi1=60, phi2=60 sens2.gobj1 @ phi3=60, phi1=60, phi2=60 sens2.gobj2 @ phi3=60, phi1=60, phi2=60
0.12                      65                       65                       59.99999999999999        47.360619912857416       0.9820018407445875       0.869768681916202        0.12                     65                       65                       55                       52.85707877250022        0.9738673546912294       0.8752959399783745       0.12                     65                       65                       65                       40.99529283787017        0.982483388410973        0.8675944455756235       0.12                     59.99999999999999        59.99999999999999        59.99999999999999        53.13010235415599        0.983011535528694        0.8770460515999494
