% Model:              all.mph
% Version:            COMSOL 5.6.0.341
% Date:               May 31 2021, 23:52
% Dimension:          0
% Nodes:              1
% Expressions:        28
% Description:        , , , , , Mag_EF, Est_ef
% r1 @ phi3=60, phi2=65, phi1=65 phi1 (deg) @ phi3=60, phi2=65, phi1=65 phi2 (deg) @ phi3=60, phi2=65, phi1=65 phi3 (deg) @ phi3=60, phi2=65, phi1=65 phi4 (deg) @ phi3=60, phi2=65, phi1=65 sens2.gobj1 @ phi3=60, phi2=65, phi1=65 sens2.gobj2 @ phi3=60, phi2=65, phi1=65 r1 @ phi3=55, phi2=65, phi1=65 phi1 (deg) @ phi3=55, phi2=65, phi1=65 phi2 (deg) @ phi3=55, phi2=65, phi1=65 phi3 (deg) @ phi3=55, phi2=65, phi1=65 phi4 (deg) @ phi3=55, phi2=65, phi1=65 sens2.gobj1 @ phi3=55, phi2=65, phi1=65 sens2.gobj2 @ phi3=55, phi2=65, phi1=65 r1 @ phi3=65, phi2=65, phi1=65 phi1 (deg) @ phi3=65, phi2=65, phi1=65 phi2 (deg) @ phi3=65, phi2=65, phi1=65 phi3 (deg) @ phi3=65, phi2=65, phi1=65 phi4 (deg) @ phi3=65, phi2=65, phi1=65 sens2.gobj1 @ phi3=65, phi2=65, phi1=65 sens2.gobj2 @ phi3=65, phi2=65, phi1=65 r1 @ phi3=60, phi2=60, phi1=60 phi1 (deg) @ phi3=60, phi2=60, phi1=60 phi2 (deg) @ phi3=60, phi2=60, phi1=60 phi3 (deg) @ phi3=60, phi2=60, phi1=60 phi4 (deg) @ phi3=60, phi2=60, phi1=60 sens2.gobj1 @ phi3=60, phi2=60, phi1=60 sens2.gobj2 @ phi3=60, phi2=60, phi1=60
0.12                      65                       65                       59.99999999999999        47.360619912857416       0.9819993046173762       0.8697549174205249       0.12                     65                       65                       55                       52.85707877250022        0.9738673528826013       0.8752959258585401       0.12                     65                       65                       65                       40.99529283787017        0.9824824556671579       0.867596377002371        0.12                     59.99999999999999        59.99999999999999        59.99999999999999        53.13010235415599        0.9830151988004832       0.877048461634178
