% Model:              axial_4.mph
% Version:            COMSOL 5.6.0.341
% Date:               May 31 2021, 23:58
% Dimension:          0
% Nodes:              1
% Expressions:        144
% Description:        Est_ef, Mag_ef, , 
% opt.gobj1 @ w_mag=0.2, ag=1, am=0.5, h_gap=51 opt.gobj2 @ w_mag=0.2, ag=1, am=0.5, h_gap=51 am @ w_mag=0.2, ag=1, am=0.5, h_gap=51 w_mag @ w_mag=0.2, ag=1, am=0.5, h_gap=51 opt.gobj1 @ w_mag=0.2, ag=1, am=0.75, h_gap=51 opt.gobj2 @ w_mag=0.2, ag=1, am=0.75, h_gap=51 am @ w_mag=0.2, ag=1, am=0.75, h_gap=51 w_mag @ w_mag=0.2, ag=1, am=0.75, h_gap=51 opt.gobj1 @ w_mag=0.2, ag=1, am=1.5, h_gap=51 opt.gobj2 @ w_mag=0.2, ag=1, am=1.5, h_gap=51 am @ w_mag=0.2, ag=1, am=1.5, h_gap=51 w_mag @ w_mag=0.2, ag=1, am=1.5, h_gap=51 opt.gobj1 @ w_mag=0.2, ag=1, am=2, h_gap=51 opt.gobj2 @ w_mag=0.2, ag=1, am=2, h_gap=51 am @ w_mag=0.2, ag=1, am=2, h_gap=51 w_mag @ w_mag=0.2, ag=1, am=2, h_gap=51 opt.gobj1 @ w_mag=0.25, ag=1, am=0.5, h_gap=51 opt.gobj2 @ w_mag=0.25, ag=1, am=0.5, h_gap=51 am @ w_mag=0.25, ag=1, am=0.5, h_gap=51 w_mag @ w_mag=0.25, ag=1, am=0.5, h_gap=51 opt.gobj1 @ w_mag=0.25, ag=1, am=0.75, h_gap=51 opt.gobj2 @ w_mag=0.25, ag=1, am=0.75, h_gap=51 am @ w_mag=0.25, ag=1, am=0.75, h_gap=51 w_mag @ w_mag=0.25, ag=1, am=0.75, h_gap=51 opt.gobj1 @ w_mag=0.25, ag=1, am=1.5, h_gap=51 opt.gobj2 @ w_mag=0.25, ag=1, am=1.5, h_gap=51 am @ w_mag=0.25, ag=1, am=1.5, h_gap=51 w_mag @ w_mag=0.25, ag=1, am=1.5, h_gap=51 opt.gobj1 @ w_mag=0.25, ag=1, am=2, h_gap=51 opt.gobj2 @ w_mag=0.25, ag=1, am=2, h_gap=51 am @ w_mag=0.25, ag=1, am=2, h_gap=51 w_mag @ w_mag=0.25, ag=1, am=2, h_gap=51 opt.gobj1 @ w_mag=0.3, ag=1, am=0.5, h_gap=51 opt.gobj2 @ w_mag=0.3, ag=1, am=0.5, h_gap=51 am @ w_mag=0.3, ag=1, am=0.5, h_gap=51 w_mag @ w_mag=0.3, ag=1, am=0.5, h_gap=51 opt.gobj1 @ w_mag=0.3, ag=1, am=0.75, h_gap=51 opt.gobj2 @ w_mag=0.3, ag=1, am=0.75, h_gap=51 am @ w_mag=0.3, ag=1, am=0.75, h_gap=51 w_mag @ w_mag=0.3, ag=1, am=0.75, h_gap=51 opt.gobj1 @ w_mag=0.3, ag=1, am=1.5, h_gap=51 opt.gobj2 @ w_mag=0.3, ag=1, am=1.5, h_gap=51 am @ w_mag=0.3, ag=1, am=1.5, h_gap=51 w_mag @ w_mag=0.3, ag=1, am=1.5, h_gap=51 opt.gobj1 @ w_mag=0.3, ag=1, am=2, h_gap=51 opt.gobj2 @ w_mag=0.3, ag=1, am=2, h_gap=51 am @ w_mag=0.3, ag=1, am=2, h_gap=51 w_mag @ w_mag=0.3, ag=1, am=2, h_gap=51 opt.gobj1 @ w_mag=0.35, ag=1, am=0.5, h_gap=51 opt.gobj2 @ w_mag=0.35, ag=1, am=0.5, h_gap=51 am @ w_mag=0.35, ag=1, am=0.5, h_gap=51 w_mag @ w_mag=0.35, ag=1, am=0.5, h_gap=51 opt.gobj1 @ w_mag=0.35, ag=1, am=0.75, h_gap=51 opt.gobj2 @ w_mag=0.35, ag=1, am=0.75, h_gap=51 am @ w_mag=0.35, ag=1, am=0.75, h_gap=51 w_mag @ w_mag=0.35, ag=1, am=0.75, h_gap=51 opt.gobj1 @ w_mag=0.35, ag=1, am=1.5, h_gap=51 opt.gobj2 @ w_mag=0.35, ag=1, am=1.5, h_gap=51 am @ w_mag=0.35, ag=1, am=1.5, h_gap=51 w_mag @ w_mag=0.35, ag=1, am=1.5, h_gap=51 opt.gobj1 @ w_mag=0.35, ag=1, am=2, h_gap=51 opt.gobj2 @ w_mag=0.35, ag=1, am=2, h_gap=51 am @ w_mag=0.35, ag=1, am=2, h_gap=51 w_mag @ w_mag=0.35, ag=1, am=2, h_gap=51 opt.gobj1 @ w_mag=0.4, ag=1, am=0.5, h_gap=51 opt.gobj2 @ w_mag=0.4, ag=1, am=0.5, h_gap=51 am @ w_mag=0.4, ag=1, am=0.5, h_gap=51 w_mag @ w_mag=0.4, ag=1, am=0.5, h_gap=51 opt.gobj1 @ w_mag=0.4, ag=1, am=0.75, h_gap=51 opt.gobj2 @ w_mag=0.4, ag=1, am=0.75, h_gap=51 am @ w_mag=0.4, ag=1, am=0.75, h_gap=51 w_mag @ w_mag=0.4, ag=1, am=0.75, h_gap=51 opt.gobj1 @ w_mag=0.4, ag=1, am=1.5, h_gap=51 opt.gobj2 @ w_mag=0.4, ag=1, am=1.5, h_gap=51 am @ w_mag=0.4, ag=1, am=1.5, h_gap=51 w_mag @ w_mag=0.4, ag=1, am=1.5, h_gap=51 opt.gobj1 @ w_mag=0.4, ag=1, am=2, h_gap=51 opt.gobj2 @ w_mag=0.4, ag=1, am=2, h_gap=51 am @ w_mag=0.4, ag=1, am=2, h_gap=51 w_mag @ w_mag=0.4, ag=1, am=2, h_gap=51 opt.gobj1 @ w_mag=0.45, ag=1, am=0.5, h_gap=51 opt.gobj2 @ w_mag=0.45, ag=1, am=0.5, h_gap=51 am @ w_mag=0.45, ag=1, am=0.5, h_gap=51 w_mag @ w_mag=0.45, ag=1, am=0.5, h_gap=51 opt.gobj1 @ w_mag=0.45, ag=1, am=0.75, h_gap=51 opt.gobj2 @ w_mag=0.45, ag=1, am=0.75, h_gap=51 am @ w_mag=0.45, ag=1, am=0.75, h_gap=51 w_mag @ w_mag=0.45, ag=1, am=0.75, h_gap=51 opt.gobj1 @ w_mag=0.45, ag=1, am=1.5, h_gap=51 opt.gobj2 @ w_mag=0.45, ag=1, am=1.5, h_gap=51 am @ w_mag=0.45, ag=1, am=1.5, h_gap=51 w_mag @ w_mag=0.45, ag=1, am=1.5, h_gap=51 opt.gobj1 @ w_mag=0.45, ag=1, am=2, h_gap=51 opt.gobj2 @ w_mag=0.45, ag=1, am=2, h_gap=51 am @ w_mag=0.45, ag=1, am=2, h_gap=51 w_mag @ w_mag=0.45, ag=1, am=2, h_gap=51 opt.gobj1 @ w_mag=0.5, ag=1, am=0.5, h_gap=51 opt.gobj2 @ w_mag=0.5, ag=1, am=0.5, h_gap=51 am @ w_mag=0.5, ag=1, am=0.5, h_gap=51 w_mag @ w_mag=0.5, ag=1, am=0.5, h_gap=51 opt.gobj1 @ w_mag=0.5, ag=1, am=0.75, h_gap=51 opt.gobj2 @ w_mag=0.5, ag=1, am=0.75, h_gap=51 am @ w_mag=0.5, ag=1, am=0.75, h_gap=51 w_mag @ w_mag=0.5, ag=1, am=0.75, h_gap=51 opt.gobj1 @ w_mag=0.5, ag=1, am=1.5, h_gap=51 opt.gobj2 @ w_mag=0.5, ag=1, am=1.5, h_gap=51 am @ w_mag=0.5, ag=1, am=1.5, h_gap=51 w_mag @ w_mag=0.5, ag=1, am=1.5, h_gap=51 opt.gobj1 @ w_mag=0.5, ag=1, am=2, h_gap=51 opt.gobj2 @ w_mag=0.5, ag=1, am=2, h_gap=51 am @ w_mag=0.5, ag=1, am=2, h_gap=51 w_mag @ w_mag=0.5, ag=1, am=2, h_gap=51 opt.gobj1 @ w_mag=0.55, ag=1, am=0.5, h_gap=51 opt.gobj2 @ w_mag=0.55, ag=1, am=0.5, h_gap=51 am @ w_mag=0.55, ag=1, am=0.5, h_gap=51 w_mag @ w_mag=0.55, ag=1, am=0.5, h_gap=51 opt.gobj1 @ w_mag=0.55, ag=1, am=0.75, h_gap=51 opt.gobj2 @ w_mag=0.55, ag=1, am=0.75, h_gap=51 am @ w_mag=0.55, ag=1, am=0.75, h_gap=51 w_mag @ w_mag=0.55, ag=1, am=0.75, h_gap=51 opt.gobj1 @ w_mag=0.55, ag=1, am=1.5, h_gap=51 opt.gobj2 @ w_mag=0.55, ag=1, am=1.5, h_gap=51 am @ w_mag=0.55, ag=1, am=1.5, h_gap=51 w_mag @ w_mag=0.55, ag=1, am=1.5, h_gap=51 opt.gobj1 @ w_mag=0.55, ag=1, am=2, h_gap=51 opt.gobj2 @ w_mag=0.55, ag=1, am=2, h_gap=51 am @ w_mag=0.55, ag=1, am=2, h_gap=51 w_mag @ w_mag=0.55, ag=1, am=2, h_gap=51 opt.gobj1 @ w_mag=0.6, ag=1, am=0.5, h_gap=51 opt.gobj2 @ w_mag=0.6, ag=1, am=0.5, h_gap=51 am @ w_mag=0.6, ag=1, am=0.5, h_gap=51 w_mag @ w_mag=0.6, ag=1, am=0.5, h_gap=51 opt.gobj1 @ w_mag=0.6, ag=1, am=0.75, h_gap=51 opt.gobj2 @ w_mag=0.6, ag=1, am=0.75, h_gap=51 am @ w_mag=0.6, ag=1, am=0.75, h_gap=51 w_mag @ w_mag=0.6, ag=1, am=0.75, h_gap=51 opt.gobj1 @ w_mag=0.6, ag=1, am=1.5, h_gap=51 opt.gobj2 @ w_mag=0.6, ag=1, am=1.5, h_gap=51 am @ w_mag=0.6, ag=1, am=1.5, h_gap=51 w_mag @ w_mag=0.6, ag=1, am=1.5, h_gap=51 opt.gobj1 @ w_mag=0.6, ag=1, am=2, h_gap=51 opt.gobj2 @ w_mag=0.6, ag=1, am=2, h_gap=51 am @ w_mag=0.6, ag=1, am=2, h_gap=51 w_mag @ w_mag=0.6, ag=1, am=2, h_gap=51
0.5551379397222408        0.435826283832869        0.5                      0.2                      0.39654406944372633      0.6431444970829833       0.75                     0.2                      0.15301202101226535      1.3674593771452157       1.5                      0.2                      0.11985829081548709      1.8096621903012973       2                        0.2                      0.645355405646949        0.4571263533320305       0.5                      0.25                     0.5932658065010179       0.6512430142187663       0.75                     0.25                     0.29425062577316685      1.3107334395377244       1.5                      0.25                     0.1835691451209856       1.8269877222218562       2                        0.25                     0.6666963382372091       0.47297891562633365      0.5                      0.30000000000000004      0.6500472970524593       0.6803837192730239       0.75                     0.30000000000000004      0.47914619886152177      1.263484437707984        1.5                      0.30000000000000004      0.3173370414333818       1.744743292635185        2                        0.30000000000000004      0.6676396260902877       0.4727057898587206       0.5                      0.35000000000000003      0.6674869723250516       0.7028893661735108       0.75                     0.35000000000000003      0.611953291760252        1.2681808184335621       1.5                      0.35000000000000003      0.4691613266334671       1.6924904464024775       2                        0.35000000000000003      0.6377821826743588       0.4641927715804826       0.5                      0.4                      0.6646978241765302       0.7125362166856843       0.75                     0.4                      0.6100983346104608       1.350291202348353        1.5                      0.4                      0.6065995734550174       1.6680545249484389       2                        0.4                      0.6271379280616832       0.44472053778622694      0.5                      0.45                     0.6581804242803077       0.703515305330136        0.75                     0.45                     0.6442614640803221       1.3782617980140306       1.5                      0.45                     0.6008664454771014       1.7704803856492084       2                        0.45                     0.6021543862791836       0.42414768397762065      0.5                      0.5                      0.6265220434435468       0.6936203782837782       0.75                     0.5                      0.6553622833315954       1.4017750148290822       1.5                      0.5                      0.6336528493688655       1.804527878356226        2                        0.5                      0.47620455922737975      0.43875929403234554      0.5                      0.55                     0.6143419476734442       0.6709320660247724       0.75                     0.55                     0.6456355400098135       1.420922856644412        1.5                      0.55                     0.633053942494611        1.8495514733043792       2                        0.55                     0.3944390256565527       0.44427894842176524      0.5                      0.6000000000000001       0.5956725004186629       0.6462546292925592       0.75                     0.6000000000000001       0.6355993534709908       1.421134607047009        1.5                      0.6000000000000001       0.6364715047435139       1.8768916001670939       2                        0.6000000000000001
