% Model:              axial_4.mph
% Version:            COMSOL 5.6.0.341
% Date:               May 31 2021, 23:57
% Dimension:          0
% Nodes:              1
% Expressions:        272
% Description:        Est_ef, Mag_ef, , 
% opt.gobj1 @ y1=0.15, w_mag=0.2 opt.gobj2 @ y1=0.15, w_mag=0.2 y1 @ y1=0.15, w_mag=0.2  w_mag @ y1=0.15, w_mag=0.2 opt.gobj1 @ y1=0.15, w_mag=0.225 opt.gobj2 @ y1=0.15, w_mag=0.225 y1 @ y1=0.15, w_mag=0.225 w_mag @ y1=0.15, w_mag=0.225 opt.gobj1 @ y1=0.15, w_mag=0.25 opt.gobj2 @ y1=0.15, w_mag=0.25 y1 @ y1=0.15, w_mag=0.25 w_mag @ y1=0.15, w_mag=0.25 opt.gobj1 @ y1=0.15, w_mag=0.275 opt.gobj2 @ y1=0.15, w_mag=0.275 y1 @ y1=0.15, w_mag=0.275 w_mag @ y1=0.15, w_mag=0.275 opt.gobj1 @ y1=0.15, w_mag=0.3 opt.gobj2 @ y1=0.15, w_mag=0.3 y1 @ y1=0.15, w_mag=0.3  w_mag @ y1=0.15, w_mag=0.3 opt.gobj1 @ y1=0.15, w_mag=0.325 opt.gobj2 @ y1=0.15, w_mag=0.325 y1 @ y1=0.15, w_mag=0.325 w_mag @ y1=0.15, w_mag=0.325 opt.gobj1 @ y1=0.15, w_mag=0.35 opt.gobj2 @ y1=0.15, w_mag=0.35 y1 @ y1=0.15, w_mag=0.35 w_mag @ y1=0.15, w_mag=0.35 opt.gobj1 @ y1=0.15, w_mag=0.375 opt.gobj2 @ y1=0.15, w_mag=0.375 y1 @ y1=0.15, w_mag=0.375 w_mag @ y1=0.15, w_mag=0.375 opt.gobj1 @ y1=0.15, w_mag=0.4 opt.gobj2 @ y1=0.15, w_mag=0.4 y1 @ y1=0.15, w_mag=0.4  w_mag @ y1=0.15, w_mag=0.4 opt.gobj1 @ y1=0.15, w_mag=0.425 opt.gobj2 @ y1=0.15, w_mag=0.425 y1 @ y1=0.15, w_mag=0.425 w_mag @ y1=0.15, w_mag=0.425 opt.gobj1 @ y1=0.15, w_mag=0.45 opt.gobj2 @ y1=0.15, w_mag=0.45 y1 @ y1=0.15, w_mag=0.45 w_mag @ y1=0.15, w_mag=0.45 opt.gobj1 @ y1=0.15, w_mag=0.475 opt.gobj2 @ y1=0.15, w_mag=0.475 y1 @ y1=0.15, w_mag=0.475 w_mag @ y1=0.15, w_mag=0.475 opt.gobj1 @ y1=0.15, w_mag=0.5 opt.gobj2 @ y1=0.15, w_mag=0.5 y1 @ y1=0.15, w_mag=0.5  w_mag @ y1=0.15, w_mag=0.5 opt.gobj1 @ y1=0.15, w_mag=0.525 opt.gobj2 @ y1=0.15, w_mag=0.525 y1 @ y1=0.15, w_mag=0.525 w_mag @ y1=0.15, w_mag=0.525 opt.gobj1 @ y1=0.15, w_mag=0.55 opt.gobj2 @ y1=0.15, w_mag=0.55 y1 @ y1=0.15, w_mag=0.55 w_mag @ y1=0.15, w_mag=0.55 opt.gobj1 @ y1=0.15, w_mag=0.575 opt.gobj2 @ y1=0.15, w_mag=0.575 y1 @ y1=0.15, w_mag=0.575 w_mag @ y1=0.15, w_mag=0.575 opt.gobj1 @ y1=0.15, w_mag=0.6 opt.gobj2 @ y1=0.15, w_mag=0.6 y1 @ y1=0.15, w_mag=0.6  w_mag @ y1=0.15, w_mag=0.6 opt.gobj1 @ y1=0.2, w_mag=0.2 opt.gobj2 @ y1=0.2, w_mag=0.2 y1 @ y1=0.2, w_mag=0.2   w_mag @ y1=0.2, w_mag=0.2 opt.gobj1 @ y1=0.2, w_mag=0.225 opt.gobj2 @ y1=0.2, w_mag=0.225 y1 @ y1=0.2, w_mag=0.225 w_mag @ y1=0.2, w_mag=0.225 opt.gobj1 @ y1=0.2, w_mag=0.25 opt.gobj2 @ y1=0.2, w_mag=0.25 y1 @ y1=0.2, w_mag=0.25  w_mag @ y1=0.2, w_mag=0.25 opt.gobj1 @ y1=0.2, w_mag=0.275 opt.gobj2 @ y1=0.2, w_mag=0.275 y1 @ y1=0.2, w_mag=0.275 w_mag @ y1=0.2, w_mag=0.275 opt.gobj1 @ y1=0.2, w_mag=0.3 opt.gobj2 @ y1=0.2, w_mag=0.3 y1 @ y1=0.2, w_mag=0.3   w_mag @ y1=0.2, w_mag=0.3 opt.gobj1 @ y1=0.2, w_mag=0.325 opt.gobj2 @ y1=0.2, w_mag=0.325 y1 @ y1=0.2, w_mag=0.325 w_mag @ y1=0.2, w_mag=0.325 opt.gobj1 @ y1=0.2, w_mag=0.35 opt.gobj2 @ y1=0.2, w_mag=0.35 y1 @ y1=0.2, w_mag=0.35  w_mag @ y1=0.2, w_mag=0.35 opt.gobj1 @ y1=0.2, w_mag=0.375 opt.gobj2 @ y1=0.2, w_mag=0.375 y1 @ y1=0.2, w_mag=0.375 w_mag @ y1=0.2, w_mag=0.375 opt.gobj1 @ y1=0.2, w_mag=0.4 opt.gobj2 @ y1=0.2, w_mag=0.4 y1 @ y1=0.2, w_mag=0.4   w_mag @ y1=0.2, w_mag=0.4 opt.gobj1 @ y1=0.2, w_mag=0.425 opt.gobj2 @ y1=0.2, w_mag=0.425 y1 @ y1=0.2, w_mag=0.425 w_mag @ y1=0.2, w_mag=0.425 opt.gobj1 @ y1=0.2, w_mag=0.45 opt.gobj2 @ y1=0.2, w_mag=0.45 y1 @ y1=0.2, w_mag=0.45  w_mag @ y1=0.2, w_mag=0.45 opt.gobj1 @ y1=0.2, w_mag=0.475 opt.gobj2 @ y1=0.2, w_mag=0.475 y1 @ y1=0.2, w_mag=0.475 w_mag @ y1=0.2, w_mag=0.475 opt.gobj1 @ y1=0.2, w_mag=0.5 opt.gobj2 @ y1=0.2, w_mag=0.5 y1 @ y1=0.2, w_mag=0.5   w_mag @ y1=0.2, w_mag=0.5 opt.gobj1 @ y1=0.2, w_mag=0.525 opt.gobj2 @ y1=0.2, w_mag=0.525 y1 @ y1=0.2, w_mag=0.525 w_mag @ y1=0.2, w_mag=0.525 opt.gobj1 @ y1=0.2, w_mag=0.55 opt.gobj2 @ y1=0.2, w_mag=0.55 y1 @ y1=0.2, w_mag=0.55  w_mag @ y1=0.2, w_mag=0.55 opt.gobj1 @ y1=0.2, w_mag=0.575 opt.gobj2 @ y1=0.2, w_mag=0.575 y1 @ y1=0.2, w_mag=0.575 w_mag @ y1=0.2, w_mag=0.575 opt.gobj1 @ y1=0.2, w_mag=0.6 opt.gobj2 @ y1=0.2, w_mag=0.6 y1 @ y1=0.2, w_mag=0.6   w_mag @ y1=0.2, w_mag=0.6 opt.gobj1 @ y1=0.25, w_mag=0.2 opt.gobj2 @ y1=0.25, w_mag=0.2 y1 @ y1=0.25, w_mag=0.2  w_mag @ y1=0.25, w_mag=0.2 opt.gobj1 @ y1=0.25, w_mag=0.225 opt.gobj2 @ y1=0.25, w_mag=0.225 y1 @ y1=0.25, w_mag=0.225 w_mag @ y1=0.25, w_mag=0.225 opt.gobj1 @ y1=0.25, w_mag=0.25 opt.gobj2 @ y1=0.25, w_mag=0.25 y1 @ y1=0.25, w_mag=0.25 w_mag @ y1=0.25, w_mag=0.25 opt.gobj1 @ y1=0.25, w_mag=0.275 opt.gobj2 @ y1=0.25, w_mag=0.275 y1 @ y1=0.25, w_mag=0.275 w_mag @ y1=0.25, w_mag=0.275 opt.gobj1 @ y1=0.25, w_mag=0.3 opt.gobj2 @ y1=0.25, w_mag=0.3 y1 @ y1=0.25, w_mag=0.3  w_mag @ y1=0.25, w_mag=0.3 opt.gobj1 @ y1=0.25, w_mag=0.325 opt.gobj2 @ y1=0.25, w_mag=0.325 y1 @ y1=0.25, w_mag=0.325 w_mag @ y1=0.25, w_mag=0.325 opt.gobj1 @ y1=0.25, w_mag=0.35 opt.gobj2 @ y1=0.25, w_mag=0.35 y1 @ y1=0.25, w_mag=0.35 w_mag @ y1=0.25, w_mag=0.35 opt.gobj1 @ y1=0.25, w_mag=0.375 opt.gobj2 @ y1=0.25, w_mag=0.375 y1 @ y1=0.25, w_mag=0.375 w_mag @ y1=0.25, w_mag=0.375 opt.gobj1 @ y1=0.25, w_mag=0.4 opt.gobj2 @ y1=0.25, w_mag=0.4 y1 @ y1=0.25, w_mag=0.4  w_mag @ y1=0.25, w_mag=0.4 opt.gobj1 @ y1=0.25, w_mag=0.425 opt.gobj2 @ y1=0.25, w_mag=0.425 y1 @ y1=0.25, w_mag=0.425 w_mag @ y1=0.25, w_mag=0.425 opt.gobj1 @ y1=0.25, w_mag=0.45 opt.gobj2 @ y1=0.25, w_mag=0.45 y1 @ y1=0.25, w_mag=0.45 w_mag @ y1=0.25, w_mag=0.45 opt.gobj1 @ y1=0.25, w_mag=0.475 opt.gobj2 @ y1=0.25, w_mag=0.475 y1 @ y1=0.25, w_mag=0.475 w_mag @ y1=0.25, w_mag=0.475 opt.gobj1 @ y1=0.25, w_mag=0.5 opt.gobj2 @ y1=0.25, w_mag=0.5 y1 @ y1=0.25, w_mag=0.5  w_mag @ y1=0.25, w_mag=0.5 opt.gobj1 @ y1=0.25, w_mag=0.525 opt.gobj2 @ y1=0.25, w_mag=0.525 y1 @ y1=0.25, w_mag=0.525 w_mag @ y1=0.25, w_mag=0.525 opt.gobj1 @ y1=0.25, w_mag=0.55 opt.gobj2 @ y1=0.25, w_mag=0.55 y1 @ y1=0.25, w_mag=0.55 w_mag @ y1=0.25, w_mag=0.55 opt.gobj1 @ y1=0.25, w_mag=0.575 opt.gobj2 @ y1=0.25, w_mag=0.575 y1 @ y1=0.25, w_mag=0.575 w_mag @ y1=0.25, w_mag=0.575 opt.gobj1 @ y1=0.25, w_mag=0.6 opt.gobj2 @ y1=0.25, w_mag=0.6 y1 @ y1=0.25, w_mag=0.6  w_mag @ y1=0.25, w_mag=0.6 opt.gobj1 @ y1=0.3, w_mag=0.2 opt.gobj2 @ y1=0.3, w_mag=0.2 y1 @ y1=0.3, w_mag=0.2   w_mag @ y1=0.3, w_mag=0.2 opt.gobj1 @ y1=0.3, w_mag=0.225 opt.gobj2 @ y1=0.3, w_mag=0.225 y1 @ y1=0.3, w_mag=0.225 w_mag @ y1=0.3, w_mag=0.225 opt.gobj1 @ y1=0.3, w_mag=0.25 opt.gobj2 @ y1=0.3, w_mag=0.25 y1 @ y1=0.3, w_mag=0.25  w_mag @ y1=0.3, w_mag=0.25 opt.gobj1 @ y1=0.3, w_mag=0.275 opt.gobj2 @ y1=0.3, w_mag=0.275 y1 @ y1=0.3, w_mag=0.275 w_mag @ y1=0.3, w_mag=0.275 opt.gobj1 @ y1=0.3, w_mag=0.3 opt.gobj2 @ y1=0.3, w_mag=0.3 y1 @ y1=0.3, w_mag=0.3   w_mag @ y1=0.3, w_mag=0.3 opt.gobj1 @ y1=0.3, w_mag=0.325 opt.gobj2 @ y1=0.3, w_mag=0.325 y1 @ y1=0.3, w_mag=0.325 w_mag @ y1=0.3, w_mag=0.325 opt.gobj1 @ y1=0.3, w_mag=0.35 opt.gobj2 @ y1=0.3, w_mag=0.35 y1 @ y1=0.3, w_mag=0.35  w_mag @ y1=0.3, w_mag=0.35 opt.gobj1 @ y1=0.3, w_mag=0.375 opt.gobj2 @ y1=0.3, w_mag=0.375 y1 @ y1=0.3, w_mag=0.375 w_mag @ y1=0.3, w_mag=0.375 opt.gobj1 @ y1=0.3, w_mag=0.4 opt.gobj2 @ y1=0.3, w_mag=0.4 y1 @ y1=0.3, w_mag=0.4   w_mag @ y1=0.3, w_mag=0.4 opt.gobj1 @ y1=0.3, w_mag=0.425 opt.gobj2 @ y1=0.3, w_mag=0.425 y1 @ y1=0.3, w_mag=0.425 w_mag @ y1=0.3, w_mag=0.425 opt.gobj1 @ y1=0.3, w_mag=0.45 opt.gobj2 @ y1=0.3, w_mag=0.45 y1 @ y1=0.3, w_mag=0.45  w_mag @ y1=0.3, w_mag=0.45 opt.gobj1 @ y1=0.3, w_mag=0.475 opt.gobj2 @ y1=0.3, w_mag=0.475 y1 @ y1=0.3, w_mag=0.475 w_mag @ y1=0.3, w_mag=0.475 opt.gobj1 @ y1=0.3, w_mag=0.5 opt.gobj2 @ y1=0.3, w_mag=0.5 y1 @ y1=0.3, w_mag=0.5   w_mag @ y1=0.3, w_mag=0.5 opt.gobj1 @ y1=0.3, w_mag=0.525 opt.gobj2 @ y1=0.3, w_mag=0.525 y1 @ y1=0.3, w_mag=0.525 w_mag @ y1=0.3, w_mag=0.525 opt.gobj1 @ y1=0.3, w_mag=0.55 opt.gobj2 @ y1=0.3, w_mag=0.55 y1 @ y1=0.3, w_mag=0.55  w_mag @ y1=0.3, w_mag=0.55 opt.gobj1 @ y1=0.3, w_mag=0.575 opt.gobj2 @ y1=0.3, w_mag=0.575 y1 @ y1=0.3, w_mag=0.575 w_mag @ y1=0.3, w_mag=0.575 opt.gobj1 @ y1=0.3, w_mag=0.6 opt.gobj2 @ y1=0.3, w_mag=0.6 y1 @ y1=0.3, w_mag=0.6   w_mag @ y1=0.3, w_mag=0.6
0.2558620583046008        0.8807363057383445       0.15                     0.2                      0.49099800526667503      0.8369119755793064       0.15                     0.225                    0.642059102718719        0.8032157434950022       0.15                     0.25                     0.6585753546063275       0.8377902280028697       0.15                     0.275                    0.2883383001771109       0.9229620898894831       0.15                     0.30000000000000004      0.678645081239191        0.8849088089937971       0.15                     0.325                    0.6877381267450016       0.9021411959620957       0.15                     0.35000000000000003      0.6889912652720476       0.9159458479456161       0.15                     0.375                    0.678585859376747        0.9317743521463571       0.15                     0.4                      0.6687546935288162       0.9416570617106754       0.15                     0.42500000000000004      0.6586755995520993       0.9463307170553494       0.15                     0.45                     0.6471156145034881       0.9474777729447125       0.15                     0.47500000000000003      0.6363224523542991       0.9447829481002813       0.15                     0.5                      0.6233115795295193       0.9416685237054037       0.15                     0.525                    0.6128016913175478       0.9352044987864883       0.15                     0.55                     0.5940102764323344       0.9320119613489583       0.15                     0.575                    0.5870390728056          0.9224940857545803       0.15                     0.6000000000000001       0.323880720566689        0.8655154134291289       0.2                      0.2                      0.18772250318197686      0.8995739411744832       0.2                      0.225                    0.5757046453231368       0.8247578114889781       0.2                      0.25                     0.5955746577022693       0.8582644588299682       0.2                      0.275                    0.6370925708907076       0.8736862559648875       0.2                      0.30000000000000004      0.6663230226101955       0.8831788862103873       0.2                      0.325                    0.6661555088351697       0.9089248490939847       0.2                      0.35000000000000003      0.6807498627631532       0.9171271195430235       0.2                      0.375                    0.6708717279591491       0.9359194543231172       0.2                      0.4                      0.6717686363223383       0.9437431506663466       0.2                      0.42500000000000004      0.6664765212350787       0.9482116137906502       0.2                      0.45                     0.6587900927731467       0.9483973987492803       0.2                      0.47500000000000003      0.6519420116120036       0.944427460528449        0.2                      0.5                      0.6453095773485336       0.9373318834537571       0.2                      0.525                    0.6380127104538089       0.9278238519968283       0.2                      0.55                     0.617182293191472        0.9257554294345528       0.2                      0.575                    0.6068723791961038       0.91769437694941         0.2                      0.6000000000000001       0.2799536463475042       0.8769789854607256       0.25                     0.2                      0.4223347039214294       0.8352624461714956       0.25                     0.225                    0.5175708732793675       0.8356962179715788       0.25                     0.25                     0.5725069005411348       0.8558048736068105       0.25                     0.275                    0.6174422121432833       0.8714316214917076       0.25                     0.30000000000000004      0.6156985006355445       0.9032626284499147       0.25                     0.325                    0.6514147172974339       0.908192838344205        0.25                     0.35000000000000003      0.6541299527533967       0.9257700883096588       0.25                     0.375                    0.6652825097273499       0.9333933246493246       0.25                     0.4                      0.6629777902706919       0.9440003441412999       0.25                     0.42500000000000004      0.6594240295825669       0.9489083064753426       0.25                     0.45                     0.6550444214178108       0.9491758638923923       0.25                     0.47500000000000003      0.6505006796733086       0.945036432667863        0.25                     0.5                      0.6458387725835206       0.9375685808109785       0.25                     0.525                    0.6415288987511222       0.927083104631301        0.25                     0.55                     0.6197878395690123       0.9251452289400584       0.25                     0.575                    0.6107768372797384       0.9165899395158694       0.25                     0.6000000000000001       0.24195029956200895      0.8878593017255357       0.3                      0.2                      0.3520587005430334       0.8629065547508626       0.3                      0.225                    0.47870686523779504      0.8423976741897661       0.3                      0.25                     0.5730072525418288       0.8395547599345133       0.3                      0.275                    0.5983824605720751       0.8681027647152331       0.3                      0.30000000000000004      0.6050843004985901       0.8961120169635254       0.3                      0.325                    0.6209742890088904       0.9152790257731054       0.3                      0.35000000000000003      0.6460077423250187       0.9215511494088791       0.3                      0.375                    0.6526222088528539       0.9329284489241124       0.3                      0.4                      0.6527035555094591       0.943818921150487        0.3                      0.42500000000000004      0.6511892618981558       0.9491638785928079       0.3                      0.45                     0.6476466993715643       0.9497584251686264       0.3                      0.47500000000000003      0.6447881915099103       0.945720940088246        0.3                      0.5                      0.6418908248141969       0.9381575262133467       0.3                      0.525                    0.6376286480630102       0.9278970140679411       0.3                      0.55                     0.6172105112575283       0.9256708092093946       0.3                      0.575                    0.6078924021497037       0.9171013448084998       0.3                      0.6000000000000001
