% Model:              axial_4.mph
% Version:            COMSOL 5.6.0.341
% Date:               May 31 2021, 23:58
% Dimension:          0
% Nodes:              1
% Expressions:        24
% Description:        Est_ef, Mag_ef, , 
% opt.gobj1 @ w_mag=0.45, phi1=0 opt.gobj2 @ w_mag=0.45, phi1=0 phi1 @ w_mag=0.45, phi1=0 w_mag @ w_mag=0.45, phi1=0 opt.gobj1 @ w_mag=0.45, phi1=15 opt.gobj2 @ w_mag=0.45, phi1=15 phi1 @ w_mag=0.45, phi1=15 w_mag @ w_mag=0.45, phi1=15 opt.gobj1 @ w_mag=0.45, phi1=30 opt.gobj2 @ w_mag=0.45, phi1=30 phi1 @ w_mag=0.45, phi1=30 w_mag @ w_mag=0.45, phi1=30 opt.gobj1 @ w_mag=0.45, phi1=45 opt.gobj2 @ w_mag=0.45, phi1=45 phi1 @ w_mag=0.45, phi1=45 w_mag @ w_mag=0.45, phi1=45 opt.gobj1 @ w_mag=0.45, phi1=60 opt.gobj2 @ w_mag=0.45, phi1=60 phi1 @ w_mag=0.45, phi1=60 w_mag @ w_mag=0.45, phi1=60 opt.gobj1 @ w_mag=0.45, phi1=75 opt.gobj2 @ w_mag=0.45, phi1=75 phi1 @ w_mag=0.45, phi1=75 w_mag @ w_mag=0.45, phi1=75
0.6563812172377723        0.9965809065671654       0                        0.45                     0.653684722190035        0.9962346805730767       0.2617993877991494       0.45                     0.6525628559289877       0.9962533101578018       0.5235987755982988       0.45                     0.6546721474830269       0.9970181426056985       0.7853981633974483       0.45                     1.216296049563364E-5     0.9989458651992486       1.0471975511965976       0.45                     0.6252127911710182       0.9947696090778009       1.3089969389957472       0.45
