% Model:              axial_3.mph
% Version:            COMSOL 5.6.0.341
% Date:               May 31 2021, 23:54
% Dimension:          0
% Nodes:              1
% Expressions:        75
% Description:        , Mag_ef, Est_ef1, Est_ef2, 
% f @ f=2.5, phi2=65      sens2.iobj1/6435.9 @ f=2.5, phi2=65 sens2.iobj3/sens2.iobj1 @ f=2.5, phi2=65 sens2.iobj3/sens2.iobj2 @ f=2.5, phi2=65 phi2 @ f=2.5, phi2=65    f @ f=2.5, phi2=75       sens2.iobj1/6435.9 @ f=2.5, phi2=75 sens2.iobj3/sens2.iobj1 @ f=2.5, phi2=75 sens2.iobj3/sens2.iobj2 @ f=2.5, phi2=75 phi2 @ f=2.5, phi2=75    f @ f=2.5, phi2=90       sens2.iobj1/6435.9 @ f=2.5, phi2=90 sens2.iobj3/sens2.iobj1 @ f=2.5, phi2=90 sens2.iobj3/sens2.iobj2 @ f=2.5, phi2=90 phi2 @ f=2.5, phi2=90    f @ f=3, phi2=75         sens2.iobj1/6435.9 @ f=3, phi2=75 sens2.iobj3/sens2.iobj1 @ f=3, phi2=75 sens2.iobj3/sens2.iobj2 @ f=3, phi2=75 phi2 @ f=3, phi2=75      f @ f=3, phi2=80         sens2.iobj1/6435.9 @ f=3, phi2=80 sens2.iobj3/sens2.iobj1 @ f=3, phi2=80 sens2.iobj3/sens2.iobj2 @ f=3, phi2=80 phi2 @ f=3, phi2=80      f @ f=3, phi2=90         sens2.iobj1/6435.9 @ f=3, phi2=90 sens2.iobj3/sens2.iobj1 @ f=3, phi2=90 sens2.iobj3/sens2.iobj2 @ f=3, phi2=90 phi2 @ f=3, phi2=90      f @ f=3.5, phi2=80       sens2.iobj1/6435.9 @ f=3.5, phi2=80 sens2.iobj3/sens2.iobj1 @ f=3.5, phi2=80 sens2.iobj3/sens2.iobj2 @ f=3.5, phi2=80 phi2 @ f=3.5, phi2=80    f @ f=3.5, phi2=85       sens2.iobj1/6435.9 @ f=3.5, phi2=85 sens2.iobj3/sens2.iobj1 @ f=3.5, phi2=85 sens2.iobj3/sens2.iobj2 @ f=3.5, phi2=85 phi2 @ f=3.5, phi2=85    f @ f=3.5, phi2=90       sens2.iobj1/6435.9 @ f=3.5, phi2=90 sens2.iobj3/sens2.iobj1 @ f=3.5, phi2=90 sens2.iobj3/sens2.iobj2 @ f=3.5, phi2=90 phi2 @ f=3.5, phi2=90    f @ f=4, phi2=85         sens2.iobj1/6435.9 @ f=4, phi2=85 sens2.iobj3/sens2.iobj1 @ f=4, phi2=85 sens2.iobj3/sens2.iobj2 @ f=4, phi2=85 phi2 @ f=4, phi2=85      f @ f=4, phi2=90         sens2.iobj1/6435.9 @ f=4, phi2=90 sens2.iobj3/sens2.iobj1 @ f=4, phi2=90 sens2.iobj3/sens2.iobj2 @ f=4, phi2=90 phi2 @ f=4, phi2=90      f @ f=2, phi2=60         sens2.iobj1/6435.9 @ f=2, phi2=60 sens2.iobj3/sens2.iobj1 @ f=2, phi2=60 sens2.iobj3/sens2.iobj2 @ f=2, phi2=60 phi2 @ f=2, phi2=60      f @ f=2, phi2=70         sens2.iobj1/6435.9 @ f=2, phi2=70 sens2.iobj3/sens2.iobj1 @ f=2, phi2=70 sens2.iobj3/sens2.iobj2 @ f=2, phi2=70 phi2 @ f=2, phi2=70      f @ f=2, phi2=80         sens2.iobj1/6435.9 @ f=2, phi2=80 sens2.iobj3/sens2.iobj1 @ f=2, phi2=80 sens2.iobj3/sens2.iobj2 @ f=2, phi2=80 phi2 @ f=2, phi2=80      f @ f=2, phi2=90         sens2.iobj1/6435.9 @ f=2, phi2=90 sens2.iobj3/sens2.iobj1 @ f=2, phi2=90 sens2.iobj3/sens2.iobj2 @ f=2, phi2=90 phi2 @ f=2, phi2=90
2.5                       0.9791607725473372       0.8458069150362464       0.8913754200936811       1.1344640137963142       2.5                      0.9793565597557924       0.7954781528981858       0.8396632174355448       1.3089969389957472       2.5                      0.9798954107732395       0.752975204254428        0.8012368884851264       1.5707963267948966       3                        0.9794985538670301       0.8285503894026868       0.8760718422394062       1.3089969389957472       3                        0.9796615494916566       0.8074924697639609       0.855570140461453        1.3962634015954636       3                        0.9798482825696808       0.7757584594345326       0.8267716761045937       1.5707963267948966       3.5                      0.9794446815705953       0.8373768508414573       0.8887817791016309       1.3962634015954636       3.5                      0.9795585791680581       0.8171887432664644       0.868643730998706        1.4835298641951802       3.5                      0.979980052588314        0.8004852594052513       0.8547043104478612       1.5707963267948966       4                        0.9786455891627864       0.8442674057456527       0.8990633352189888       1.4835298641951802       4                        0.979928754198893        0.8243506228975729       0.8816987989365607       1.5707963267948966       2                        0.9791470062713697       0.8482376827085026       0.8912616009571288       1.0471975511965976       2                        0.9814921406484518       0.81696520391233         0.861008974134976        1.2217304763960306       2                        0.9829684811874012       0.7978448582764904       0.8448190598585262       1.3962634015954636       2                        0.9842111633609891       0.7809701969715024       0.8334397431074708       1.5707963267948966
