% Model:              axial_4.mph
% Version:            COMSOL 5.6.0.341
% Date:               May 31 2021, 23:57
% Dimension:          0
% Nodes:              1
% Expressions:        42
% Description:        Est_ef, Mag_ef, 
% opt.gobj1 @ y1=0.05     opt.gobj2 @ y1=0.05      y1 @ y1=0.05             opt.gobj1 @ y1=0.1       opt.gobj2 @ y1=0.1       y1 @ y1=0.1              opt.gobj1 @ y1=0.125     opt.gobj2 @ y1=0.125     y1 @ y1=0.125            opt.gobj1 @ y1=0.15      opt.gobj2 @ y1=0.15      y1 @ y1=0.15             opt.gobj1 @ y1=0.175     opt.gobj2 @ y1=0.175     y1 @ y1=0.175            opt.gobj1 @ y1=0.2       opt.gobj2 @ y1=0.2       y1 @ y1=0.2              opt.gobj1 @ y1=0.225     opt.gobj2 @ y1=0.225     y1 @ y1=0.225            opt.gobj1 @ y1=0.25      opt.gobj2 @ y1=0.25      y1 @ y1=0.25             opt.gobj1 @ y1=0.275     opt.gobj2 @ y1=0.275     y1 @ y1=0.275            opt.gobj1 @ y1=0.3       opt.gobj2 @ y1=0.3       y1 @ y1=0.3              opt.gobj1 @ y1=0.325     opt.gobj2 @ y1=0.325     y1 @ y1=0.325            opt.gobj1 @ y1=0.35      opt.gobj2 @ y1=0.35      y1 @ y1=0.35             opt.gobj1 @ y1=0.375     opt.gobj2 @ y1=0.375     y1 @ y1=0.375            opt.gobj1 @ y1=0.4       opt.gobj2 @ y1=0.4       y1 @ y1=0.4
0.563816444015764         0.9250088803883467       0.05                     0.6221096852846795       0.9404492248945026       0.1                      0.6481622162129256       0.9446344326544026       0.125                    0.6630631885455693       0.9465765596084248       0.15                     0.6639292110788273       0.9476051113422607       0.175                    0.6652767901540557       0.9482261357167119       0.2                      0.66450455380291         0.9486925204401058       0.225                    0.6606951579558389       0.948975324828713        0.25                     0.6560979309911004       0.9491639798677729       0.275                    0.6504056824529467       0.9492434965343455       0.3                      0.6456160997869392       0.9492843201725053       0.325                    0.6407710345692803       0.949219227959553        0.35                     0.6352908998053017       0.9491280527461396       0.375                    0.6299783952807027       0.9490725565354456       0.4
