% Model:              axial_4.mph
% Version:            COMSOL 5.3.0.316
% Date:               Apr 26 2021, 20:20
% Dimension:          0
% Nodes:              1
% Expressions:        19980
% Description:        x1, , phi1, Mag_ef, Est_Ef, Est_ef 2
% x1 @ t=1, phi1=0, x1=-0.1, y1=0.01 y1 @ t=1, phi1=0, x1=-0.1, y1=0.01 phi1 (deg) @ t=1, phi1=0, x1=-0.1, y1=0.01 sens2.gobj1 (1) @ t=1, phi1=0, x1=-0.1, y1=0.01 sens2.gobj2 (1) @ t=1, phi1=0, x1=-0.1, y1=0.01 sens2.gobj3 (1) @ t=1, phi1=0, x1=-0.1, y1=0.01 x1 @ t=1, phi1=0, x1=-0.1, y1=0.02 y1 @ t=1, phi1=0, x1=-0.1, y1=0.02 phi1 (deg) @ t=1, phi1=0, x1=-0.1, y1=0.02 sens2.gobj1 (1) @ t=1, phi1=0, x1=-0.1, y1=0.02 sens2.gobj2 (1) @ t=1, phi1=0, x1=-0.1, y1=0.02 sens2.gobj3 (1) @ t=1, phi1=0, x1=-0.1, y1=0.02 x1 @ t=1, phi1=0, x1=-0.1, y1=0.03 y1 @ t=1, phi1=0, x1=-0.1, y1=0.03 phi1 (deg) @ t=1, phi1=0, x1=-0.1, y1=0.03 sens2.gobj1 (1) @ t=1, phi1=0, x1=-0.1, y1=0.03 sens2.gobj2 (1) @ t=1, phi1=0, x1=-0.1, y1=0.03 sens2.gobj3 (1) @ t=1, phi1=0, x1=-0.1, y1=0.03 x1 @ t=1, phi1=0, x1=-0.1, y1=0.04 y1 @ t=1, phi1=0, x1=-0.1, y1=0.04 phi1 (deg) @ t=1, phi1=0, x1=-0.1, y1=0.04 sens2.gobj1 (1) @ t=1, phi1=0, x1=-0.1, y1=0.04 sens2.gobj2 (1) @ t=1, phi1=0, x1=-0.1, y1=0.04 sens2.gobj3 (1) @ t=1, phi1=0, x1=-0.1, y1=0.04 x1 @ t=1, phi1=0, x1=-0.1, y1=0.05 y1 @ t=1, phi1=0, x1=-0.1, y1=0.05 phi1 (deg) @ t=1, phi1=0, x1=-0.1, y1=0.05 sens2.gobj1 (1) @ t=1, phi1=0, x1=-0.1, y1=0.05 sens2.gobj2 (1) @ t=1, phi1=0, x1=-0.1, y1=0.05 sens2.gobj3 (1) @ t=1, phi1=0, x1=-0.1, y1=0.05 x1 @ t=1, phi1=0, x1=-0.1, y1=0.06 y1 @ t=1, phi1=0, x1=-0.1, y1=0.06 phi1 (deg) @ t=1, phi1=0, x1=-0.1, y1=0.06 sens2.gobj1 (1) @ t=1, phi1=0, x1=-0.1, y1=0.06 sens2.gobj2 (1) @ t=1, phi1=0, x1=-0.1, y1=0.06 sens2.gobj3 (1) @ t=1, phi1=0, x1=-0.1, y1=0.06 x1 @ t=1, phi1=0, x1=-0.1, y1=0.07 y1 @ t=1, phi1=0, x1=-0.1, y1=0.07 phi1 (deg) @ t=1, phi1=0, x1=-0.1, y1=0.07 sens2.gobj1 (1) @ t=1, phi1=0, x1=-0.1, y1=0.07 sens2.gobj2 (1) @ t=1, phi1=0, x1=-0.1, y1=0.07 sens2.gobj3 (1) @ t=1, phi1=0, x1=-0.1, y1=0.07 x1 @ t=1, phi1=0, x1=-0.1, y1=0.08 y1 @ t=1, phi1=0, x1=-0.1, y1=0.08 phi1 (deg) @ t=1, phi1=0, x1=-0.1, y1=0.08 sens2.gobj1 (1) @ t=1, phi1=0, x1=-0.1, y1=0.08 sens2.gobj2 (1) @ t=1, phi1=0, x1=-0.1, y1=0.08 sens2.gobj3 (1) @ t=1, phi1=0, x1=-0.1, y1=0.08 x1 @ t=1, phi1=0, x1=-0.1, y1=0.09 y1 @ t=1, phi1=0, x1=-0.1, y1=0.09 phi1 (deg) @ t=1, phi1=0, x1=-0.1, y1=0.09 sens2.gobj1 (1) @ t=1, phi1=0, x1=-0.1, y1=0.09 sens2.gobj2 (1) @ t=1, phi1=0, x1=-0.1, y1=0.09 sens2.gobj3 (1) @ t=1, phi1=0, x1=-0.1, y1=0.09 x1 @ t=1, phi1=0, x1=-0.1, y1=0.1 y1 @ t=1, phi1=0, x1=-0.1, y1=0.1 phi1 (deg) @ t=1, phi1=0, x1=-0.1, y1=0.1 sens2.gobj1 (1) @ t=1, phi1=0, x1=-0.1, y1=0.1 sens2.gobj2 (1) @ t=1, phi1=0, x1=-0.1, y1=0.1 sens2.gobj3 (1) @ t=1, phi1=0, x1=-0.1, y1=0.1 x1 @ t=1, phi1=0, x1=-0.075, y1=0.01 y1 @ t=1, phi1=0, x1=-0.075, y1=0.01 phi1 (deg) @ t=1, phi1=0, x1=-0.075, y1=0.01 sens2.gobj1 (1) @ t=1, phi1=0, x1=-0.075, y1=0.01 sens2.gobj2 (1) @ t=1, phi1=0, x1=-0.075, y1=0.01 sens2.gobj3 (1) @ t=1, phi1=0, x1=-0.075, y1=0.01 x1 @ t=1, phi1=0, x1=-0.075, y1=0.02 y1 @ t=1, phi1=0, x1=-0.075, y1=0.02 phi1 (deg) @ t=1, phi1=0, x1=-0.075, y1=0.02 sens2.gobj1 (1) @ t=1, phi1=0, x1=-0.075, y1=0.02 sens2.gobj2 (1) @ t=1, phi1=0, x1=-0.075, y1=0.02 sens2.gobj3 (1) @ t=1, phi1=0, x1=-0.075, y1=0.02 x1 @ t=1, phi1=0, x1=-0.075, y1=0.03 y1 @ t=1, phi1=0, x1=-0.075, y1=0.03 phi1 (deg) @ t=1, phi1=0, x1=-0.075, y1=0.03 sens2.gobj1 (1) @ t=1, phi1=0, x1=-0.075, y1=0.03 sens2.gobj2 (1) @ t=1, phi1=0, x1=-0.075, y1=0.03 sens2.gobj3 (1) @ t=1, phi1=0, x1=-0.075, y1=0.03 x1 @ t=1, phi1=0, x1=-0.075, y1=0.04 y1 @ t=1, phi1=0, x1=-0.075, y1=0.04 phi1 (deg) @ t=1, phi1=0, x1=-0.075, y1=0.04 sens2.gobj1 (1) @ t=1, phi1=0, x1=-0.075, y1=0.04 sens2.gobj2 (1) @ t=1, phi1=0, x1=-0.075, y1=0.04 sens2.gobj3 (1) @ t=1, phi1=0, x1=-0.075, y1=0.04 x1 @ t=1, phi1=0, x1=-0.075, y1=0.05 y1 @ t=1, phi1=0, x1=-0.075, y1=0.05 phi1 (deg) @ t=1, phi1=0, x1=-0.075, y1=0.05 sens2.gobj1 (1) @ t=1, phi1=0, x1=-0.075, y1=0.05 sens2.gobj2 (1) @ t=1, phi1=0, x1=-0.075, y1=0.05 sens2.gobj3 (1) @ t=1, phi1=0, x1=-0.075, y1=0.05 x1 @ t=1, phi1=0, x1=-0.075, y1=0.06 y1 @ t=1, phi1=0, x1=-0.075, y1=0.06 phi1 (deg) @ t=1, phi1=0, x1=-0.075, y1=0.06 sens2.gobj1 (1) @ t=1, phi1=0, x1=-0.075, y1=0.06 sens2.gobj2 (1) @ t=1, phi1=0, x1=-0.075, y1=0.06 sens2.gobj3 (1) @ t=1, phi1=0, x1=-0.075, y1=0.06 x1 @ t=1, phi1=0, x1=-0.075, y1=0.07 y1 @ t=1, phi1=0, x1=-0.075, y1=0.07 phi1 (deg) @ t=1, phi1=0, x1=-0.075, y1=0.07 sens2.gobj1 (1) @ t=1, phi1=0, x1=-0.075, y1=0.07 sens2.gobj2 (1) @ t=1, phi1=0, x1=-0.075, y1=0.07 sens2.gobj3 (1) @ t=1, phi1=0, x1=-0.075, y1=0.07 x1 @ t=1, phi1=0, x1=-0.075, y1=0.08 y1 @ t=1, phi1=0, x1=-0.075, y1=0.08 phi1 (deg) @ t=1, phi1=0, x1=-0.075, y1=0.08 sens2.gobj1 (1) @ t=1, phi1=0, x1=-0.075, y1=0.08 sens2.gobj2 (1) @ t=1, phi1=0, x1=-0.075, y1=0.08 sens2.gobj3 (1) @ t=1, phi1=0, x1=-0.075, y1=0.08 x1 @ t=1, phi1=0, x1=-0.075, y1=0.09 y1 @ t=1, phi1=0, x1=-0.075, y1=0.09 phi1 (deg) @ t=1, phi1=0, x1=-0.075, y1=0.09 sens2.gobj1 (1) @ t=1, phi1=0, x1=-0.075, y1=0.09 sens2.gobj2 (1) @ t=1, phi1=0, x1=-0.075, y1=0.09 sens2.gobj3 (1) @ t=1, phi1=0, x1=-0.075, y1=0.09 x1 @ t=1, phi1=0, x1=-0.075, y1=0.1 y1 @ t=1, phi1=0, x1=-0.075, y1=0.1 phi1 (deg) @ t=1, phi1=0, x1=-0.075, y1=0.1 sens2.gobj1 (1) @ t=1, phi1=0, x1=-0.075, y1=0.1 sens2.gobj2 (1) @ t=1, phi1=0, x1=-0.075, y1=0.1 sens2.gobj3 (1) @ t=1, phi1=0, x1=-0.075, y1=0.1 x1 @ t=1, phi1=0, x1=-0.05, y1=0.01 y1 @ t=1, phi1=0, x1=-0.05, y1=0.01 phi1 (deg) @ t=1, phi1=0, x1=-0.05, y1=0.01 sens2.gobj1 (1) @ t=1, phi1=0, x1=-0.05, y1=0.01 sens2.gobj2 (1) @ t=1, phi1=0, x1=-0.05, y1=0.01 sens2.gobj3 (1) @ t=1, phi1=0, x1=-0.05, y1=0.01 x1 @ t=1, phi1=0, x1=-0.05, y1=0.02 y1 @ t=1, phi1=0, x1=-0.05, y1=0.02 phi1 (deg) @ t=1, phi1=0, x1=-0.05, y1=0.02 sens2.gobj1 (1) @ t=1, phi1=0, x1=-0.05, y1=0.02 sens2.gobj2 (1) @ t=1, phi1=0, x1=-0.05, y1=0.02 sens2.gobj3 (1) @ t=1, phi1=0, x1=-0.05, y1=0.02 x1 @ t=1, phi1=0, x1=-0.05, y1=0.03 y1 @ t=1, phi1=0, x1=-0.05, y1=0.03 phi1 (deg) @ t=1, phi1=0, x1=-0.05, y1=0.03 sens2.gobj1 (1) @ t=1, phi1=0, x1=-0.05, y1=0.03 sens2.gobj2 (1) @ t=1, phi1=0, x1=-0.05, y1=0.03 sens2.gobj3 (1) @ t=1, phi1=0, x1=-0.05, y1=0.03 x1 @ t=1, phi1=0, x1=-0.05, y1=0.04 y1 @ t=1, phi1=0, x1=-0.05, y1=0.04 phi1 (deg) @ t=1, phi1=0, x1=-0.05, y1=0.04 sens2.gobj1 (1) @ t=1, phi1=0, x1=-0.05, y1=0.04 sens2.gobj2 (1) @ t=1, phi1=0, x1=-0.05, y1=0.04 sens2.gobj3 (1) @ t=1, phi1=0, x1=-0.05, y1=0.04 x1 @ t=1, phi1=0, x1=-0.05, y1=0.05 y1 @ t=1, phi1=0, x1=-0.05, y1=0.05 phi1 (deg) @ t=1, phi1=0, x1=-0.05, y1=0.05 sens2.gobj1 (1) @ t=1, phi1=0, x1=-0.05, y1=0.05 sens2.gobj2 (1) @ t=1, phi1=0, x1=-0.05, y1=0.05 sens2.gobj3 (1) @ t=1, phi1=0, x1=-0.05, y1=0.05 x1 @ t=1, phi1=0, x1=-0.05, y1=0.06 y1 @ t=1, phi1=0, x1=-0.05, y1=0.06 phi1 (deg) @ t=1, phi1=0, x1=-0.05, y1=0.06 sens2.gobj1 (1) @ t=1, phi1=0, x1=-0.05, y1=0.06 sens2.gobj2 (1) @ t=1, phi1=0, x1=-0.05, y1=0.06 sens2.gobj3 (1) @ t=1, phi1=0, x1=-0.05, y1=0.06 x1 @ t=1, phi1=0, x1=-0.05, y1=0.07 y1 @ t=1, phi1=0, x1=-0.05, y1=0.07 phi1 (deg) @ t=1, phi1=0, x1=-0.05, y1=0.07 sens2.gobj1 (1) @ t=1, phi1=0, x1=-0.05, y1=0.07 sens2.gobj2 (1) @ t=1, phi1=0, x1=-0.05, y1=0.07 sens2.gobj3 (1) @ t=1, phi1=0, x1=-0.05, y1=0.07 x1 @ t=1, phi1=0, x1=-0.05, y1=0.08 y1 @ t=1, phi1=0, x1=-0.05, y1=0.08 phi1 (deg) @ t=1, phi1=0, x1=-0.05, y1=0.08 sens2.gobj1 (1) @ t=1, phi1=0, x1=-0.05, y1=0.08 sens2.gobj2 (1) @ t=1, phi1=0, x1=-0.05, y1=0.08 sens2.gobj3 (1) @ t=1, phi1=0, x1=-0.05, y1=0.08 x1 @ t=1, phi1=0, x1=-0.05, y1=0.09 y1 @ t=1, phi1=0, x1=-0.05, y1=0.09 phi1 (deg) @ t=1, phi1=0, x1=-0.05, y1=0.09 sens2.gobj1 (1) @ t=1, phi1=0, x1=-0.05, y1=0.09 sens2.gobj2 (1) @ t=1, phi1=0, x1=-0.05, y1=0.09 sens2.gobj3 (1) @ t=1, phi1=0, x1=-0.05, y1=0.09 x1 @ t=1, phi1=0, x1=-0.05, y1=0.1 y1 @ t=1, phi1=0, x1=-0.05, y1=0.1 phi1 (deg) @ t=1, phi1=0, x1=-0.05, y1=0.1 sens2.gobj1 (1) @ t=1, phi1=0, x1=-0.05, y1=0.1 sens2.gobj2 (1) @ t=1, phi1=0, x1=-0.05, y1=0.1 sens2.gobj3 (1) @ t=1, phi1=0, x1=-0.05, y1=0.1 x1 @ t=1, phi1=0, x1=-0.025, y1=0.01 y1 @ t=1, phi1=0, x1=-0.025, y1=0.01 phi1 (deg) @ t=1, phi1=0, x1=-0.025, y1=0.01 sens2.gobj1 (1) @ t=1, phi1=0, x1=-0.025, y1=0.01 sens2.gobj2 (1) @ t=1, phi1=0, x1=-0.025, y1=0.01 sens2.gobj3 (1) @ t=1, phi1=0, x1=-0.025, y1=0.01 x1 @ t=1, phi1=0, x1=-0.025, y1=0.02 y1 @ t=1, phi1=0, x1=-0.025, y1=0.02 phi1 (deg) @ t=1, phi1=0, x1=-0.025, y1=0.02 sens2.gobj1 (1) @ t=1, phi1=0, x1=-0.025, y1=0.02 sens2.gobj2 (1) @ t=1, phi1=0, x1=-0.025, y1=0.02 sens2.gobj3 (1) @ t=1, phi1=0, x1=-0.025, y1=0.02 x1 @ t=1, phi1=0, x1=-0.025, y1=0.03 y1 @ t=1, phi1=0, x1=-0.025, y1=0.03 phi1 (deg) @ t=1, phi1=0, x1=-0.025, y1=0.03 sens2.gobj1 (1) @ t=1, phi1=0, x1=-0.025, y1=0.03 sens2.gobj2 (1) @ t=1, phi1=0, x1=-0.025, y1=0.03 sens2.gobj3 (1) @ t=1, phi1=0, x1=-0.025, y1=0.03 x1 @ t=1, phi1=0, x1=-0.025, y1=0.04 y1 @ t=1, phi1=0, x1=-0.025, y1=0.04 phi1 (deg) @ t=1, phi1=0, x1=-0.025, y1=0.04 sens2.gobj1 (1) @ t=1, phi1=0, x1=-0.025, y1=0.04 sens2.gobj2 (1) @ t=1, phi1=0, x1=-0.025, y1=0.04 sens2.gobj3 (1) @ t=1, phi1=0, x1=-0.025, y1=0.04 x1 @ t=1, phi1=0, x1=-0.025, y1=0.05 y1 @ t=1, phi1=0, x1=-0.025, y1=0.05 phi1 (deg) @ t=1, phi1=0, x1=-0.025, y1=0.05 sens2.gobj1 (1) @ t=1, phi1=0, x1=-0.025, y1=0.05 sens2.gobj2 (1) @ t=1, phi1=0, x1=-0.025, y1=0.05 sens2.gobj3 (1) @ t=1, phi1=0, x1=-0.025, y1=0.05 x1 @ t=1, phi1=0, x1=-0.025, y1=0.06 y1 @ t=1, phi1=0, x1=-0.025, y1=0.06 phi1 (deg) @ t=1, phi1=0, x1=-0.025, y1=0.06 sens2.gobj1 (1) @ t=1, phi1=0, x1=-0.025, y1=0.06 sens2.gobj2 (1) @ t=1, phi1=0, x1=-0.025, y1=0.06 sens2.gobj3 (1) @ t=1, phi1=0, x1=-0.025, y1=0.06 x1 @ t=1, phi1=0, x1=-0.025, y1=0.07 y1 @ t=1, phi1=0, x1=-0.025, y1=0.07 phi1 (deg) @ t=1, phi1=0, x1=-0.025, y1=0.07 sens2.gobj1 (1) @ t=1, phi1=0, x1=-0.025, y1=0.07 sens2.gobj2 (1) @ t=1, phi1=0, x1=-0.025, y1=0.07 sens2.gobj3 (1) @ t=1, phi1=0, x1=-0.025, y1=0.07 x1 @ t=1, phi1=0, x1=-0.025, y1=0.08 y1 @ t=1, phi1=0, x1=-0.025, y1=0.08 phi1 (deg) @ t=1, phi1=0, x1=-0.025, y1=0.08 sens2.gobj1 (1) @ t=1, phi1=0, x1=-0.025, y1=0.08 sens2.gobj2 (1) @ t=1, phi1=0, x1=-0.025, y1=0.08 sens2.gobj3 (1) @ t=1, phi1=0, x1=-0.025, y1=0.08 x1 @ t=1, phi1=0, x1=-0.025, y1=0.09 y1 @ t=1, phi1=0, x1=-0.025, y1=0.09 phi1 (deg) @ t=1, phi1=0, x1=-0.025, y1=0.09 sens2.gobj1 (1) @ t=1, phi1=0, x1=-0.025, y1=0.09 sens2.gobj2 (1) @ t=1, phi1=0, x1=-0.025, y1=0.09 sens2.gobj3 (1) @ t=1, phi1=0, x1=-0.025, y1=0.09 x1 @ t=1, phi1=0, x1=-0.025, y1=0.1 y1 @ t=1, phi1=0, x1=-0.025, y1=0.1 phi1 (deg) @ t=1, phi1=0, x1=-0.025, y1=0.1 sens2.gobj1 (1) @ t=1, phi1=0, x1=-0.025, y1=0.1 sens2.gobj2 (1) @ t=1, phi1=0, x1=-0.025, y1=0.1 sens2.gobj3 (1) @ t=1, phi1=0, x1=-0.025, y1=0.1 x1 @ t=1, phi1=0, x1=0, y1=0.01 y1 @ t=1, phi1=0, x1=0, y1=0.01 phi1 (deg) @ t=1, phi1=0, x1=0, y1=0.01 sens2.gobj1 (1) @ t=1, phi1=0, x1=0, y1=0.01 sens2.gobj2 (1) @ t=1, phi1=0, x1=0, y1=0.01 sens2.gobj3 (1) @ t=1, phi1=0, x1=0, y1=0.01 x1 @ t=1, phi1=0, x1=0, y1=0.02 y1 @ t=1, phi1=0, x1=0, y1=0.02 phi1 (deg) @ t=1, phi1=0, x1=0, y1=0.02 sens2.gobj1 (1) @ t=1, phi1=0, x1=0, y1=0.02 sens2.gobj2 (1) @ t=1, phi1=0, x1=0, y1=0.02 sens2.gobj3 (1) @ t=1, phi1=0, x1=0, y1=0.02 x1 @ t=1, phi1=0, x1=0, y1=0.03 y1 @ t=1, phi1=0, x1=0, y1=0.03 phi1 (deg) @ t=1, phi1=0, x1=0, y1=0.03 sens2.gobj1 (1) @ t=1, phi1=0, x1=0, y1=0.03 sens2.gobj2 (1) @ t=1, phi1=0, x1=0, y1=0.03 sens2.gobj3 (1) @ t=1, phi1=0, x1=0, y1=0.03 x1 @ t=1, phi1=0, x1=0, y1=0.04 y1 @ t=1, phi1=0, x1=0, y1=0.04 phi1 (deg) @ t=1, phi1=0, x1=0, y1=0.04 sens2.gobj1 (1) @ t=1, phi1=0, x1=0, y1=0.04 sens2.gobj2 (1) @ t=1, phi1=0, x1=0, y1=0.04 sens2.gobj3 (1) @ t=1, phi1=0, x1=0, y1=0.04 x1 @ t=1, phi1=0, x1=0, y1=0.05 y1 @ t=1, phi1=0, x1=0, y1=0.05 phi1 (deg) @ t=1, phi1=0, x1=0, y1=0.05 sens2.gobj1 (1) @ t=1, phi1=0, x1=0, y1=0.05 sens2.gobj2 (1) @ t=1, phi1=0, x1=0, y1=0.05 sens2.gobj3 (1) @ t=1, phi1=0, x1=0, y1=0.05 x1 @ t=1, phi1=0, x1=0, y1=0.06 y1 @ t=1, phi1=0, x1=0, y1=0.06 phi1 (deg) @ t=1, phi1=0, x1=0, y1=0.06 sens2.gobj1 (1) @ t=1, phi1=0, x1=0, y1=0.06 sens2.gobj2 (1) @ t=1, phi1=0, x1=0, y1=0.06 sens2.gobj3 (1) @ t=1, phi1=0, x1=0, y1=0.06 x1 @ t=1, phi1=0, x1=0, y1=0.07 y1 @ t=1, phi1=0, x1=0, y1=0.07 phi1 (deg) @ t=1, phi1=0, x1=0, y1=0.07 sens2.gobj1 (1) @ t=1, phi1=0, x1=0, y1=0.07 sens2.gobj2 (1) @ t=1, phi1=0, x1=0, y1=0.07 sens2.gobj3 (1) @ t=1, phi1=0, x1=0, y1=0.07 x1 @ t=1, phi1=0, x1=0, y1=0.08 y1 @ t=1, phi1=0, x1=0, y1=0.08 phi1 (deg) @ t=1, phi1=0, x1=0, y1=0.08 sens2.gobj1 (1) @ t=1, phi1=0, x1=0, y1=0.08 sens2.gobj2 (1) @ t=1, phi1=0, x1=0, y1=0.08 sens2.gobj3 (1) @ t=1, phi1=0, x1=0, y1=0.08 x1 @ t=1, phi1=0, x1=0, y1=0.09 y1 @ t=1, phi1=0, x1=0, y1=0.09 phi1 (deg) @ t=1, phi1=0, x1=0, y1=0.09 sens2.gobj1 (1) @ t=1, phi1=0, x1=0, y1=0.09 sens2.gobj2 (1) @ t=1, phi1=0, x1=0, y1=0.09 sens2.gobj3 (1) @ t=1, phi1=0, x1=0, y1=0.09 x1 @ t=1, phi1=0, x1=0, y1=0.1 y1 @ t=1, phi1=0, x1=0, y1=0.1 phi1 (deg) @ t=1, phi1=0, x1=0, y1=0.1 sens2.gobj1 (1) @ t=1, phi1=0, x1=0, y1=0.1 sens2.gobj2 (1) @ t=1, phi1=0, x1=0, y1=0.1 sens2.gobj3 (1) @ t=1, phi1=0, x1=0, y1=0.1 x1 @ t=1, phi1=0, x1=0.025, y1=0.01 y1 @ t=1, phi1=0, x1=0.025, y1=0.01 phi1 (deg) @ t=1, phi1=0, x1=0.025, y1=0.01 sens2.gobj1 (1) @ t=1, phi1=0, x1=0.025, y1=0.01 sens2.gobj2 (1) @ t=1, phi1=0, x1=0.025, y1=0.01 sens2.gobj3 (1) @ t=1, phi1=0, x1=0.025, y1=0.01 x1 @ t=1, phi1=0, x1=0.025, y1=0.02 y1 @ t=1, phi1=0, x1=0.025, y1=0.02 phi1 (deg) @ t=1, phi1=0, x1=0.025, y1=0.02 sens2.gobj1 (1) @ t=1, phi1=0, x1=0.025, y1=0.02 sens2.gobj2 (1) @ t=1, phi1=0, x1=0.025, y1=0.02 sens2.gobj3 (1) @ t=1, phi1=0, x1=0.025, y1=0.02 x1 @ t=1, phi1=0, x1=0.025, y1=0.03 y1 @ t=1, phi1=0, x1=0.025, y1=0.03 phi1 (deg) @ t=1, phi1=0, x1=0.025, y1=0.03 sens2.gobj1 (1) @ t=1, phi1=0, x1=0.025, y1=0.03 sens2.gobj2 (1) @ t=1, phi1=0, x1=0.025, y1=0.03 sens2.gobj3 (1) @ t=1, phi1=0, x1=0.025, y1=0.03 x1 @ t=1, phi1=0, x1=0.025, y1=0.04 y1 @ t=1, phi1=0, x1=0.025, y1=0.04 phi1 (deg) @ t=1, phi1=0, x1=0.025, y1=0.04 sens2.gobj1 (1) @ t=1, phi1=0, x1=0.025, y1=0.04 sens2.gobj2 (1) @ t=1, phi1=0, x1=0.025, y1=0.04 sens2.gobj3 (1) @ t=1, phi1=0, x1=0.025, y1=0.04 x1 @ t=1, phi1=0, x1=0.025, y1=0.05 y1 @ t=1, phi1=0, x1=0.025, y1=0.05 phi1 (deg) @ t=1, phi1=0, x1=0.025, y1=0.05 sens2.gobj1 (1) @ t=1, phi1=0, x1=0.025, y1=0.05 sens2.gobj2 (1) @ t=1, phi1=0, x1=0.025, y1=0.05 sens2.gobj3 (1) @ t=1, phi1=0, x1=0.025, y1=0.05 x1 @ t=1, phi1=0, x1=0.025, y1=0.06 y1 @ t=1, phi1=0, x1=0.025, y1=0.06 phi1 (deg) @ t=1, phi1=0, x1=0.025, y1=0.06 sens2.gobj1 (1) @ t=1, phi1=0, x1=0.025, y1=0.06 sens2.gobj2 (1) @ t=1, phi1=0, x1=0.025, y1=0.06 sens2.gobj3 (1) @ t=1, phi1=0, x1=0.025, y1=0.06 x1 @ t=1, phi1=0, x1=0.025, y1=0.07 y1 @ t=1, phi1=0, x1=0.025, y1=0.07 phi1 (deg) @ t=1, phi1=0, x1=0.025, y1=0.07 sens2.gobj1 (1) @ t=1, phi1=0, x1=0.025, y1=0.07 sens2.gobj2 (1) @ t=1, phi1=0, x1=0.025, y1=0.07 sens2.gobj3 (1) @ t=1, phi1=0, x1=0.025, y1=0.07 x1 @ t=1, phi1=0, x1=0.025, y1=0.08 y1 @ t=1, phi1=0, x1=0.025, y1=0.08 phi1 (deg) @ t=1, phi1=0, x1=0.025, y1=0.08 sens2.gobj1 (1) @ t=1, phi1=0, x1=0.025, y1=0.08 sens2.gobj2 (1) @ t=1, phi1=0, x1=0.025, y1=0.08 sens2.gobj3 (1) @ t=1, phi1=0, x1=0.025, y1=0.08 x1 @ t=1, phi1=0, x1=0.025, y1=0.09 y1 @ t=1, phi1=0, x1=0.025, y1=0.09 phi1 (deg) @ t=1, phi1=0, x1=0.025, y1=0.09 sens2.gobj1 (1) @ t=1, phi1=0, x1=0.025, y1=0.09 sens2.gobj2 (1) @ t=1, phi1=0, x1=0.025, y1=0.09 sens2.gobj3 (1) @ t=1, phi1=0, x1=0.025, y1=0.09 x1 @ t=1, phi1=0, x1=0.025, y1=0.1 y1 @ t=1, phi1=0, x1=0.025, y1=0.1 phi1 (deg) @ t=1, phi1=0, x1=0.025, y1=0.1 sens2.gobj1 (1) @ t=1, phi1=0, x1=0.025, y1=0.1 sens2.gobj2 (1) @ t=1, phi1=0, x1=0.025, y1=0.1 sens2.gobj3 (1) @ t=1, phi1=0, x1=0.025, y1=0.1 x1 @ t=1, phi1=0, x1=0.05, y1=0.01 y1 @ t=1, phi1=0, x1=0.05, y1=0.01 phi1 (deg) @ t=1, phi1=0, x1=0.05, y1=0.01 sens2.gobj1 (1) @ t=1, phi1=0, x1=0.05, y1=0.01 sens2.gobj2 (1) @ t=1, phi1=0, x1=0.05, y1=0.01 sens2.gobj3 (1) @ t=1, phi1=0, x1=0.05, y1=0.01 x1 @ t=1, phi1=0, x1=0.05, y1=0.02 y1 @ t=1, phi1=0, x1=0.05, y1=0.02 phi1 (deg) @ t=1, phi1=0, x1=0.05, y1=0.02 sens2.gobj1 (1) @ t=1, phi1=0, x1=0.05, y1=0.02 sens2.gobj2 (1) @ t=1, phi1=0, x1=0.05, y1=0.02 sens2.gobj3 (1) @ t=1, phi1=0, x1=0.05, y1=0.02 x1 @ t=1, phi1=0, x1=0.05, y1=0.03 y1 @ t=1, phi1=0, x1=0.05, y1=0.03 phi1 (deg) @ t=1, phi1=0, x1=0.05, y1=0.03 sens2.gobj1 (1) @ t=1, phi1=0, x1=0.05, y1=0.03 sens2.gobj2 (1) @ t=1, phi1=0, x1=0.05, y1=0.03 sens2.gobj3 (1) @ t=1, phi1=0, x1=0.05, y1=0.03 x1 @ t=1, phi1=0, x1=0.05, y1=0.04 y1 @ t=1, phi1=0, x1=0.05, y1=0.04 phi1 (deg) @ t=1, phi1=0, x1=0.05, y1=0.04 sens2.gobj1 (1) @ t=1, phi1=0, x1=0.05, y1=0.04 sens2.gobj2 (1) @ t=1, phi1=0, x1=0.05, y1=0.04 sens2.gobj3 (1) @ t=1, phi1=0, x1=0.05, y1=0.04 x1 @ t=1, phi1=0, x1=0.05, y1=0.05 y1 @ t=1, phi1=0, x1=0.05, y1=0.05 phi1 (deg) @ t=1, phi1=0, x1=0.05, y1=0.05 sens2.gobj1 (1) @ t=1, phi1=0, x1=0.05, y1=0.05 sens2.gobj2 (1) @ t=1, phi1=0, x1=0.05, y1=0.05 sens2.gobj3 (1) @ t=1, phi1=0, x1=0.05, y1=0.05 x1 @ t=1, phi1=0, x1=0.05, y1=0.06 y1 @ t=1, phi1=0, x1=0.05, y1=0.06 phi1 (deg) @ t=1, phi1=0, x1=0.05, y1=0.06 sens2.gobj1 (1) @ t=1, phi1=0, x1=0.05, y1=0.06 sens2.gobj2 (1) @ t=1, phi1=0, x1=0.05, y1=0.06 sens2.gobj3 (1) @ t=1, phi1=0, x1=0.05, y1=0.06 x1 @ t=1, phi1=0, x1=0.05, y1=0.07 y1 @ t=1, phi1=0, x1=0.05, y1=0.07 phi1 (deg) @ t=1, phi1=0, x1=0.05, y1=0.07 sens2.gobj1 (1) @ t=1, phi1=0, x1=0.05, y1=0.07 sens2.gobj2 (1) @ t=1, phi1=0, x1=0.05, y1=0.07 sens2.gobj3 (1) @ t=1, phi1=0, x1=0.05, y1=0.07 x1 @ t=1, phi1=0, x1=0.05, y1=0.08 y1 @ t=1, phi1=0, x1=0.05, y1=0.08 phi1 (deg) @ t=1, phi1=0, x1=0.05, y1=0.08 sens2.gobj1 (1) @ t=1, phi1=0, x1=0.05, y1=0.08 sens2.gobj2 (1) @ t=1, phi1=0, x1=0.05, y1=0.08 sens2.gobj3 (1) @ t=1, phi1=0, x1=0.05, y1=0.08 x1 @ t=1, phi1=0, x1=0.05, y1=0.09 y1 @ t=1, phi1=0, x1=0.05, y1=0.09 phi1 (deg) @ t=1, phi1=0, x1=0.05, y1=0.09 sens2.gobj1 (1) @ t=1, phi1=0, x1=0.05, y1=0.09 sens2.gobj2 (1) @ t=1, phi1=0, x1=0.05, y1=0.09 sens2.gobj3 (1) @ t=1, phi1=0, x1=0.05, y1=0.09 x1 @ t=1, phi1=0, x1=0.05, y1=0.1 y1 @ t=1, phi1=0, x1=0.05, y1=0.1 phi1 (deg) @ t=1, phi1=0, x1=0.05, y1=0.1 sens2.gobj1 (1) @ t=1, phi1=0, x1=0.05, y1=0.1 sens2.gobj2 (1) @ t=1, phi1=0, x1=0.05, y1=0.1 sens2.gobj3 (1) @ t=1, phi1=0, x1=0.05, y1=0.1 x1 @ t=1, phi1=0, x1=0.075, y1=0.01 y1 @ t=1, phi1=0, x1=0.075, y1=0.01 phi1 (deg) @ t=1, phi1=0, x1=0.075, y1=0.01 sens2.gobj1 (1) @ t=1, phi1=0, x1=0.075, y1=0.01 sens2.gobj2 (1) @ t=1, phi1=0, x1=0.075, y1=0.01 sens2.gobj3 (1) @ t=1, phi1=0, x1=0.075, y1=0.01 x1 @ t=1, phi1=0, x1=0.075, y1=0.02 y1 @ t=1, phi1=0, x1=0.075, y1=0.02 phi1 (deg) @ t=1, phi1=0, x1=0.075, y1=0.02 sens2.gobj1 (1) @ t=1, phi1=0, x1=0.075, y1=0.02 sens2.gobj2 (1) @ t=1, phi1=0, x1=0.075, y1=0.02 sens2.gobj3 (1) @ t=1, phi1=0, x1=0.075, y1=0.02 x1 @ t=1, phi1=0, x1=0.075, y1=0.03 y1 @ t=1, phi1=0, x1=0.075, y1=0.03 phi1 (deg) @ t=1, phi1=0, x1=0.075, y1=0.03 sens2.gobj1 (1) @ t=1, phi1=0, x1=0.075, y1=0.03 sens2.gobj2 (1) @ t=1, phi1=0, x1=0.075, y1=0.03 sens2.gobj3 (1) @ t=1, phi1=0, x1=0.075, y1=0.03 x1 @ t=1, phi1=0, x1=0.075, y1=0.04 y1 @ t=1, phi1=0, x1=0.075, y1=0.04 phi1 (deg) @ t=1, phi1=0, x1=0.075, y1=0.04 sens2.gobj1 (1) @ t=1, phi1=0, x1=0.075, y1=0.04 sens2.gobj2 (1) @ t=1, phi1=0, x1=0.075, y1=0.04 sens2.gobj3 (1) @ t=1, phi1=0, x1=0.075, y1=0.04 x1 @ t=1, phi1=0, x1=0.075, y1=0.05 y1 @ t=1, phi1=0, x1=0.075, y1=0.05 phi1 (deg) @ t=1, phi1=0, x1=0.075, y1=0.05 sens2.gobj1 (1) @ t=1, phi1=0, x1=0.075, y1=0.05 sens2.gobj2 (1) @ t=1, phi1=0, x1=0.075, y1=0.05 sens2.gobj3 (1) @ t=1, phi1=0, x1=0.075, y1=0.05 x1 @ t=1, phi1=0, x1=0.075, y1=0.06 y1 @ t=1, phi1=0, x1=0.075, y1=0.06 phi1 (deg) @ t=1, phi1=0, x1=0.075, y1=0.06 sens2.gobj1 (1) @ t=1, phi1=0, x1=0.075, y1=0.06 sens2.gobj2 (1) @ t=1, phi1=0, x1=0.075, y1=0.06 sens2.gobj3 (1) @ t=1, phi1=0, x1=0.075, y1=0.06 x1 @ t=1, phi1=0, x1=0.075, y1=0.07 y1 @ t=1, phi1=0, x1=0.075, y1=0.07 phi1 (deg) @ t=1, phi1=0, x1=0.075, y1=0.07 sens2.gobj1 (1) @ t=1, phi1=0, x1=0.075, y1=0.07 sens2.gobj2 (1) @ t=1, phi1=0, x1=0.075, y1=0.07 sens2.gobj3 (1) @ t=1, phi1=0, x1=0.075, y1=0.07 x1 @ t=1, phi1=0, x1=0.075, y1=0.08 y1 @ t=1, phi1=0, x1=0.075, y1=0.08 phi1 (deg) @ t=1, phi1=0, x1=0.075, y1=0.08 sens2.gobj1 (1) @ t=1, phi1=0, x1=0.075, y1=0.08 sens2.gobj2 (1) @ t=1, phi1=0, x1=0.075, y1=0.08 sens2.gobj3 (1) @ t=1, phi1=0, x1=0.075, y1=0.08 x1 @ t=1, phi1=0, x1=0.075, y1=0.09 y1 @ t=1, phi1=0, x1=0.075, y1=0.09 phi1 (deg) @ t=1, phi1=0, x1=0.075, y1=0.09 sens2.gobj1 (1) @ t=1, phi1=0, x1=0.075, y1=0.09 sens2.gobj2 (1) @ t=1, phi1=0, x1=0.075, y1=0.09 sens2.gobj3 (1) @ t=1, phi1=0, x1=0.075, y1=0.09 x1 @ t=1, phi1=0, x1=0.075, y1=0.1 y1 @ t=1, phi1=0, x1=0.075, y1=0.1 phi1 (deg) @ t=1, phi1=0, x1=0.075, y1=0.1 sens2.gobj1 (1) @ t=1, phi1=0, x1=0.075, y1=0.1 sens2.gobj2 (1) @ t=1, phi1=0, x1=0.075, y1=0.1 sens2.gobj3 (1) @ t=1, phi1=0, x1=0.075, y1=0.1 x1 @ t=1, phi1=0, x1=0.1, y1=0.01 y1 @ t=1, phi1=0, x1=0.1, y1=0.01 phi1 (deg) @ t=1, phi1=0, x1=0.1, y1=0.01 sens2.gobj1 (1) @ t=1, phi1=0, x1=0.1, y1=0.01 sens2.gobj2 (1) @ t=1, phi1=0, x1=0.1, y1=0.01 sens2.gobj3 (1) @ t=1, phi1=0, x1=0.1, y1=0.01 x1 @ t=1, phi1=0, x1=0.1, y1=0.02 y1 @ t=1, phi1=0, x1=0.1, y1=0.02 phi1 (deg) @ t=1, phi1=0, x1=0.1, y1=0.02 sens2.gobj1 (1) @ t=1, phi1=0, x1=0.1, y1=0.02 sens2.gobj2 (1) @ t=1, phi1=0, x1=0.1, y1=0.02 sens2.gobj3 (1) @ t=1, phi1=0, x1=0.1, y1=0.02 x1 @ t=1, phi1=0, x1=0.1, y1=0.03 y1 @ t=1, phi1=0, x1=0.1, y1=0.03 phi1 (deg) @ t=1, phi1=0, x1=0.1, y1=0.03 sens2.gobj1 (1) @ t=1, phi1=0, x1=0.1, y1=0.03 sens2.gobj2 (1) @ t=1, phi1=0, x1=0.1, y1=0.03 sens2.gobj3 (1) @ t=1, phi1=0, x1=0.1, y1=0.03 x1 @ t=1, phi1=0, x1=0.1, y1=0.04 y1 @ t=1, phi1=0, x1=0.1, y1=0.04 phi1 (deg) @ t=1, phi1=0, x1=0.1, y1=0.04 sens2.gobj1 (1) @ t=1, phi1=0, x1=0.1, y1=0.04 sens2.gobj2 (1) @ t=1, phi1=0, x1=0.1, y1=0.04 sens2.gobj3 (1) @ t=1, phi1=0, x1=0.1, y1=0.04 x1 @ t=1, phi1=0, x1=0.1, y1=0.05 y1 @ t=1, phi1=0, x1=0.1, y1=0.05 phi1 (deg) @ t=1, phi1=0, x1=0.1, y1=0.05 sens2.gobj1 (1) @ t=1, phi1=0, x1=0.1, y1=0.05 sens2.gobj2 (1) @ t=1, phi1=0, x1=0.1, y1=0.05 sens2.gobj3 (1) @ t=1, phi1=0, x1=0.1, y1=0.05 x1 @ t=1, phi1=0, x1=0.1, y1=0.06 y1 @ t=1, phi1=0, x1=0.1, y1=0.06 phi1 (deg) @ t=1, phi1=0, x1=0.1, y1=0.06 sens2.gobj1 (1) @ t=1, phi1=0, x1=0.1, y1=0.06 sens2.gobj2 (1) @ t=1, phi1=0, x1=0.1, y1=0.06 sens2.gobj3 (1) @ t=1, phi1=0, x1=0.1, y1=0.06 x1 @ t=1, phi1=0, x1=0.1, y1=0.07 y1 @ t=1, phi1=0, x1=0.1, y1=0.07 phi1 (deg) @ t=1, phi1=0, x1=0.1, y1=0.07 sens2.gobj1 (1) @ t=1, phi1=0, x1=0.1, y1=0.07 sens2.gobj2 (1) @ t=1, phi1=0, x1=0.1, y1=0.07 sens2.gobj3 (1) @ t=1, phi1=0, x1=0.1, y1=0.07 x1 @ t=1, phi1=0, x1=0.1, y1=0.08 y1 @ t=1, phi1=0, x1=0.1, y1=0.08 phi1 (deg) @ t=1, phi1=0, x1=0.1, y1=0.08 sens2.gobj1 (1) @ t=1, phi1=0, x1=0.1, y1=0.08 sens2.gobj2 (1) @ t=1, phi1=0, x1=0.1, y1=0.08 sens2.gobj3 (1) @ t=1, phi1=0, x1=0.1, y1=0.08 x1 @ t=1, phi1=0, x1=0.1, y1=0.09 y1 @ t=1, phi1=0, x1=0.1, y1=0.09 phi1 (deg) @ t=1, phi1=0, x1=0.1, y1=0.09 sens2.gobj1 (1) @ t=1, phi1=0, x1=0.1, y1=0.09 sens2.gobj2 (1) @ t=1, phi1=0, x1=0.1, y1=0.09 sens2.gobj3 (1) @ t=1, phi1=0, x1=0.1, y1=0.09 x1 @ t=1, phi1=0, x1=0.1, y1=0.1 y1 @ t=1, phi1=0, x1=0.1, y1=0.1 phi1 (deg) @ t=1, phi1=0, x1=0.1, y1=0.1 sens2.gobj1 (1) @ t=1, phi1=0, x1=0.1, y1=0.1 sens2.gobj2 (1) @ t=1, phi1=0, x1=0.1, y1=0.1 sens2.gobj3 (1) @ t=1, phi1=0, x1=0.1, y1=0.1 x1 @ t=1, phi1=2.5, x1=-0.1, y1=0.01 y1 @ t=1, phi1=2.5, x1=-0.1, y1=0.01 phi1 (deg) @ t=1, phi1=2.5, x1=-0.1, y1=0.01 sens2.gobj1 (1) @ t=1, phi1=2.5, x1=-0.1, y1=0.01 sens2.gobj2 (1) @ t=1, phi1=2.5, x1=-0.1, y1=0.01 sens2.gobj3 (1) @ t=1, phi1=2.5, x1=-0.1, y1=0.01 x1 @ t=1, phi1=2.5, x1=-0.1, y1=0.02 y1 @ t=1, phi1=2.5, x1=-0.1, y1=0.02 phi1 (deg) @ t=1, phi1=2.5, x1=-0.1, y1=0.02 sens2.gobj1 (1) @ t=1, phi1=2.5, x1=-0.1, y1=0.02 sens2.gobj2 (1) @ t=1, phi1=2.5, x1=-0.1, y1=0.02 sens2.gobj3 (1) @ t=1, phi1=2.5, x1=-0.1, y1=0.02 x1 @ t=1, phi1=2.5, x1=-0.1, y1=0.03 y1 @ t=1, phi1=2.5, x1=-0.1, y1=0.03 phi1 (deg) @ t=1, phi1=2.5, x1=-0.1, y1=0.03 sens2.gobj1 (1) @ t=1, phi1=2.5, x1=-0.1, y1=0.03 sens2.gobj2 (1) @ t=1, phi1=2.5, x1=-0.1, y1=0.03 sens2.gobj3 (1) @ t=1, phi1=2.5, x1=-0.1, y1=0.03 x1 @ t=1, phi1=2.5, x1=-0.1, y1=0.04 y1 @ t=1, phi1=2.5, x1=-0.1, y1=0.04 phi1 (deg) @ t=1, phi1=2.5, x1=-0.1, y1=0.04 sens2.gobj1 (1) @ t=1, phi1=2.5, x1=-0.1, y1=0.04 sens2.gobj2 (1) @ t=1, phi1=2.5, x1=-0.1, y1=0.04 sens2.gobj3 (1) @ t=1, phi1=2.5, x1=-0.1, y1=0.04 x1 @ t=1, phi1=2.5, x1=-0.1, y1=0.05 y1 @ t=1, phi1=2.5, x1=-0.1, y1=0.05 phi1 (deg) @ t=1, phi1=2.5, x1=-0.1, y1=0.05 sens2.gobj1 (1) @ t=1, phi1=2.5, x1=-0.1, y1=0.05 sens2.gobj2 (1) @ t=1, phi1=2.5, x1=-0.1, y1=0.05 sens2.gobj3 (1) @ t=1, phi1=2.5, x1=-0.1, y1=0.05 x1 @ t=1, phi1=2.5, x1=-0.1, y1=0.06 y1 @ t=1, phi1=2.5, x1=-0.1, y1=0.06 phi1 (deg) @ t=1, phi1=2.5, x1=-0.1, y1=0.06 sens2.gobj1 (1) @ t=1, phi1=2.5, x1=-0.1, y1=0.06 sens2.gobj2 (1) @ t=1, phi1=2.5, x1=-0.1, y1=0.06 sens2.gobj3 (1) @ t=1, phi1=2.5, x1=-0.1, y1=0.06 x1 @ t=1, phi1=2.5, x1=-0.1, y1=0.07 y1 @ t=1, phi1=2.5, x1=-0.1, y1=0.07 phi1 (deg) @ t=1, phi1=2.5, x1=-0.1, y1=0.07 sens2.gobj1 (1) @ t=1, phi1=2.5, x1=-0.1, y1=0.07 sens2.gobj2 (1) @ t=1, phi1=2.5, x1=-0.1, y1=0.07 sens2.gobj3 (1) @ t=1, phi1=2.5, x1=-0.1, y1=0.07 x1 @ t=1, phi1=2.5, x1=-0.1, y1=0.08 y1 @ t=1, phi1=2.5, x1=-0.1, y1=0.08 phi1 (deg) @ t=1, phi1=2.5, x1=-0.1, y1=0.08 sens2.gobj1 (1) @ t=1, phi1=2.5, x1=-0.1, y1=0.08 sens2.gobj2 (1) @ t=1, phi1=2.5, x1=-0.1, y1=0.08 sens2.gobj3 (1) @ t=1, phi1=2.5, x1=-0.1, y1=0.08 x1 @ t=1, phi1=2.5, x1=-0.1, y1=0.09 y1 @ t=1, phi1=2.5, x1=-0.1, y1=0.09 phi1 (deg) @ t=1, phi1=2.5, x1=-0.1, y1=0.09 sens2.gobj1 (1) @ t=1, phi1=2.5, x1=-0.1, y1=0.09 sens2.gobj2 (1) @ t=1, phi1=2.5, x1=-0.1, y1=0.09 sens2.gobj3 (1) @ t=1, phi1=2.5, x1=-0.1, y1=0.09 x1 @ t=1, phi1=2.5, x1=-0.1, y1=0.1 y1 @ t=1, phi1=2.5, x1=-0.1, y1=0.1 phi1 (deg) @ t=1, phi1=2.5, x1=-0.1, y1=0.1 sens2.gobj1 (1) @ t=1, phi1=2.5, x1=-0.1, y1=0.1 sens2.gobj2 (1) @ t=1, phi1=2.5, x1=-0.1, y1=0.1 sens2.gobj3 (1) @ t=1, phi1=2.5, x1=-0.1, y1=0.1 x1 @ t=1, phi1=2.5, x1=-0.075, y1=0.01 y1 @ t=1, phi1=2.5, x1=-0.075, y1=0.01 phi1 (deg) @ t=1, phi1=2.5, x1=-0.075, y1=0.01 sens2.gobj1 (1) @ t=1, phi1=2.5, x1=-0.075, y1=0.01 sens2.gobj2 (1) @ t=1, phi1=2.5, x1=-0.075, y1=0.01 sens2.gobj3 (1) @ t=1, phi1=2.5, x1=-0.075, y1=0.01 x1 @ t=1, phi1=2.5, x1=-0.075, y1=0.02 y1 @ t=1, phi1=2.5, x1=-0.075, y1=0.02 phi1 (deg) @ t=1, phi1=2.5, x1=-0.075, y1=0.02 sens2.gobj1 (1) @ t=1, phi1=2.5, x1=-0.075, y1=0.02 sens2.gobj2 (1) @ t=1, phi1=2.5, x1=-0.075, y1=0.02 sens2.gobj3 (1) @ t=1, phi1=2.5, x1=-0.075, y1=0.02 x1 @ t=1, phi1=2.5, x1=-0.075, y1=0.03 y1 @ t=1, phi1=2.5, x1=-0.075, y1=0.03 phi1 (deg) @ t=1, phi1=2.5, x1=-0.075, y1=0.03 sens2.gobj1 (1) @ t=1, phi1=2.5, x1=-0.075, y1=0.03 sens2.gobj2 (1) @ t=1, phi1=2.5, x1=-0.075, y1=0.03 sens2.gobj3 (1) @ t=1, phi1=2.5, x1=-0.075, y1=0.03 x1 @ t=1, phi1=2.5, x1=-0.075, y1=0.04 y1 @ t=1, phi1=2.5, x1=-0.075, y1=0.04 phi1 (deg) @ t=1, phi1=2.5, x1=-0.075, y1=0.04 sens2.gobj1 (1) @ t=1, phi1=2.5, x1=-0.075, y1=0.04 sens2.gobj2 (1) @ t=1, phi1=2.5, x1=-0.075, y1=0.04 sens2.gobj3 (1) @ t=1, phi1=2.5, x1=-0.075, y1=0.04 x1 @ t=1, phi1=2.5, x1=-0.075, y1=0.05 y1 @ t=1, phi1=2.5, x1=-0.075, y1=0.05 phi1 (deg) @ t=1, phi1=2.5, x1=-0.075, y1=0.05 sens2.gobj1 (1) @ t=1, phi1=2.5, x1=-0.075, y1=0.05 sens2.gobj2 (1) @ t=1, phi1=2.5, x1=-0.075, y1=0.05 sens2.gobj3 (1) @ t=1, phi1=2.5, x1=-0.075, y1=0.05 x1 @ t=1, phi1=2.5, x1=-0.075, y1=0.06 y1 @ t=1, phi1=2.5, x1=-0.075, y1=0.06 phi1 (deg) @ t=1, phi1=2.5, x1=-0.075, y1=0.06 sens2.gobj1 (1) @ t=1, phi1=2.5, x1=-0.075, y1=0.06 sens2.gobj2 (1) @ t=1, phi1=2.5, x1=-0.075, y1=0.06 sens2.gobj3 (1) @ t=1, phi1=2.5, x1=-0.075, y1=0.06 x1 @ t=1, phi1=2.5, x1=-0.075, y1=0.07 y1 @ t=1, phi1=2.5, x1=-0.075, y1=0.07 phi1 (deg) @ t=1, phi1=2.5, x1=-0.075, y1=0.07 sens2.gobj1 (1) @ t=1, phi1=2.5, x1=-0.075, y1=0.07 sens2.gobj2 (1) @ t=1, phi1=2.5, x1=-0.075, y1=0.07 sens2.gobj3 (1) @ t=1, phi1=2.5, x1=-0.075, y1=0.07 x1 @ t=1, phi1=2.5, x1=-0.075, y1=0.08 y1 @ t=1, phi1=2.5, x1=-0.075, y1=0.08 phi1 (deg) @ t=1, phi1=2.5, x1=-0.075, y1=0.08 sens2.gobj1 (1) @ t=1, phi1=2.5, x1=-0.075, y1=0.08 sens2.gobj2 (1) @ t=1, phi1=2.5, x1=-0.075, y1=0.08 sens2.gobj3 (1) @ t=1, phi1=2.5, x1=-0.075, y1=0.08 x1 @ t=1, phi1=2.5, x1=-0.075, y1=0.09 y1 @ t=1, phi1=2.5, x1=-0.075, y1=0.09 phi1 (deg) @ t=1, phi1=2.5, x1=-0.075, y1=0.09 sens2.gobj1 (1) @ t=1, phi1=2.5, x1=-0.075, y1=0.09 sens2.gobj2 (1) @ t=1, phi1=2.5, x1=-0.075, y1=0.09 sens2.gobj3 (1) @ t=1, phi1=2.5, x1=-0.075, y1=0.09 x1 @ t=1, phi1=2.5, x1=-0.075, y1=0.1 y1 @ t=1, phi1=2.5, x1=-0.075, y1=0.1 phi1 (deg) @ t=1, phi1=2.5, x1=-0.075, y1=0.1 sens2.gobj1 (1) @ t=1, phi1=2.5, x1=-0.075, y1=0.1 sens2.gobj2 (1) @ t=1, phi1=2.5, x1=-0.075, y1=0.1 sens2.gobj3 (1) @ t=1, phi1=2.5, x1=-0.075, y1=0.1 x1 @ t=1, phi1=2.5, x1=-0.05, y1=0.01 y1 @ t=1, phi1=2.5, x1=-0.05, y1=0.01 phi1 (deg) @ t=1, phi1=2.5, x1=-0.05, y1=0.01 sens2.gobj1 (1) @ t=1, phi1=2.5, x1=-0.05, y1=0.01 sens2.gobj2 (1) @ t=1, phi1=2.5, x1=-0.05, y1=0.01 sens2.gobj3 (1) @ t=1, phi1=2.5, x1=-0.05, y1=0.01 x1 @ t=1, phi1=2.5, x1=-0.05, y1=0.02 y1 @ t=1, phi1=2.5, x1=-0.05, y1=0.02 phi1 (deg) @ t=1, phi1=2.5, x1=-0.05, y1=0.02 sens2.gobj1 (1) @ t=1, phi1=2.5, x1=-0.05, y1=0.02 sens2.gobj2 (1) @ t=1, phi1=2.5, x1=-0.05, y1=0.02 sens2.gobj3 (1) @ t=1, phi1=2.5, x1=-0.05, y1=0.02 x1 @ t=1, phi1=2.5, x1=-0.05, y1=0.03 y1 @ t=1, phi1=2.5, x1=-0.05, y1=0.03 phi1 (deg) @ t=1, phi1=2.5, x1=-0.05, y1=0.03 sens2.gobj1 (1) @ t=1, phi1=2.5, x1=-0.05, y1=0.03 sens2.gobj2 (1) @ t=1, phi1=2.5, x1=-0.05, y1=0.03 sens2.gobj3 (1) @ t=1, phi1=2.5, x1=-0.05, y1=0.03 x1 @ t=1, phi1=2.5, x1=-0.05, y1=0.04 y1 @ t=1, phi1=2.5, x1=-0.05, y1=0.04 phi1 (deg) @ t=1, phi1=2.5, x1=-0.05, y1=0.04 sens2.gobj1 (1) @ t=1, phi1=2.5, x1=-0.05, y1=0.04 sens2.g