% Model:              Untitled.mph
% Version:            COMSOL 5.6.0.341
% Date:               Oct 21 2021, 23:30
% Dimension:          0
% Nodes:              1
% Expressions:        1116
% Description:        , , , , , 
% w_mag (mm) @ w_mag=50, h_gap=25, w_gap=150 h_mag (mm) @ w_mag=50, h_gap=25, w_gap=150 w_gap (mm) @ w_mag=50, h_gap=25, w_gap=150 h_gap (mm) @ w_mag=50, h_gap=25, w_gap=150 mag_ef (1) @ w_mag=50, h_gap=25, w_gap=150 est_ef (1) @ w_mag=50, h_gap=25, w_gap=150 w_mag (mm) @ w_mag=50, h_gap=25, w_gap=200 h_mag (mm) @ w_mag=50, h_gap=25, w_gap=200 w_gap (mm) @ w_mag=50, h_gap=25, w_gap=200 h_gap (mm) @ w_mag=50, h_gap=25, w_gap=200 mag_ef (1) @ w_mag=50, h_gap=25, w_gap=200 est_ef (1) @ w_mag=50, h_gap=25, w_gap=200 w_mag (mm) @ w_mag=50, h_gap=25, w_gap=400 h_mag (mm) @ w_mag=50, h_gap=25, w_gap=400 w_gap (mm) @ w_mag=50, h_gap=25, w_gap=400 h_gap (mm) @ w_mag=50, h_gap=25, w_gap=400 mag_ef (1) @ w_mag=50, h_gap=25, w_gap=400 est_ef (1) @ w_mag=50, h_gap=25, w_gap=400 w_mag (mm) @ w_mag=50, h_gap=50, w_gap=150 h_mag (mm) @ w_mag=50, h_gap=50, w_gap=150 w_gap (mm) @ w_mag=50, h_gap=50, w_gap=150 h_gap (mm) @ w_mag=50, h_gap=50, w_gap=150 mag_ef (1) @ w_mag=50, h_gap=50, w_gap=150 est_ef (1) @ w_mag=50, h_gap=50, w_gap=150 w_mag (mm) @ w_mag=50, h_gap=50, w_gap=200 h_mag (mm) @ w_mag=50, h_gap=50, w_gap=200 w_gap (mm) @ w_mag=50, h_gap=50, w_gap=200 h_gap (mm) @ w_mag=50, h_gap=50, w_gap=200 mag_ef (1) @ w_mag=50, h_gap=50, w_gap=200 est_ef (1) @ w_mag=50, h_gap=50, w_gap=200 w_mag (mm) @ w_mag=50, h_gap=50, w_gap=400 h_mag (mm) @ w_mag=50, h_gap=50, w_gap=400 w_gap (mm) @ w_mag=50, h_gap=50, w_gap=400 h_gap (mm) @ w_mag=50, h_gap=50, w_gap=400 mag_ef (1) @ w_mag=50, h_gap=50, w_gap=400 est_ef (1) @ w_mag=50, h_gap=50, w_gap=400 w_mag (mm) @ w_mag=75, h_gap=25, w_gap=150 h_mag (mm) @ w_mag=75, h_gap=25, w_gap=150 w_gap (mm) @ w_mag=75, h_gap=25, w_gap=150 h_gap (mm) @ w_mag=75, h_gap=25, w_gap=150 mag_ef (1) @ w_mag=75, h_gap=25, w_gap=150 est_ef (1) @ w_mag=75, h_gap=25, w_gap=150 w_mag (mm) @ w_mag=75, h_gap=25, w_gap=200 h_mag (mm) @ w_mag=75, h_gap=25, w_gap=200 w_gap (mm) @ w_mag=75, h_gap=25, w_gap=200 h_gap (mm) @ w_mag=75, h_gap=25, w_gap=200 mag_ef (1) @ w_mag=75, h_gap=25, w_gap=200 est_ef (1) @ w_mag=75, h_gap=25, w_gap=200 w_mag (mm) @ w_mag=75, h_gap=25, w_gap=400 h_mag (mm) @ w_mag=75, h_gap=25, w_gap=400 w_gap (mm) @ w_mag=75, h_gap=25, w_gap=400 h_gap (mm) @ w_mag=75, h_gap=25, w_gap=400 mag_ef (1) @ w_mag=75, h_gap=25, w_gap=400 est_ef (1) @ w_mag=75, h_gap=25, w_gap=400 w_mag (mm) @ w_mag=75, h_gap=50, w_gap=150 h_mag (mm) @ w_mag=75, h_gap=50, w_gap=150 w_gap (mm) @ w_mag=75, h_gap=50, w_gap=150 h_gap (mm) @ w_mag=75, h_gap=50, w_gap=150 mag_ef (1) @ w_mag=75, h_gap=50, w_gap=150 est_ef (1) @ w_mag=75, h_gap=50, w_gap=150 w_mag (mm) @ w_mag=75, h_gap=50, w_gap=200 h_mag (mm) @ w_mag=75, h_gap=50, w_gap=200 w_gap (mm) @ w_mag=75, h_gap=50, w_gap=200 h_gap (mm) @ w_mag=75, h_gap=50, w_gap=200 mag_ef (1) @ w_mag=75, h_gap=50, w_gap=200 est_ef (1) @ w_mag=75, h_gap=50, w_gap=200 w_mag (mm) @ w_mag=75, h_gap=50, w_gap=400 h_mag (mm) @ w_mag=75, h_gap=50, w_gap=400 w_gap (mm) @ w_mag=75, h_gap=50, w_gap=400 h_gap (mm) @ w_mag=75, h_gap=50, w_gap=400 mag_ef (1) @ w_mag=75, h_gap=50, w_gap=400 est_ef (1) @ w_mag=75, h_gap=50, w_gap=400 w_mag (mm) @ w_mag=100, h_gap=25, w_gap=150 h_mag (mm) @ w_mag=100, h_gap=25, w_gap=150 w_gap (mm) @ w_mag=100, h_gap=25, w_gap=150 h_gap (mm) @ w_mag=100, h_gap=25, w_gap=150 mag_ef (1) @ w_mag=100, h_gap=25, w_gap=150 est_ef (1) @ w_mag=100, h_gap=25, w_gap=150 w_mag (mm) @ w_mag=100, h_gap=25, w_gap=200 h_mag (mm) @ w_mag=100, h_gap=25, w_gap=200 w_gap (mm) @ w_mag=100, h_gap=25, w_gap=200 h_gap (mm) @ w_mag=100, h_gap=25, w_gap=200 mag_ef (1) @ w_mag=100, h_gap=25, w_gap=200 est_ef (1) @ w_mag=100, h_gap=25, w_gap=200 w_mag (mm) @ w_mag=100, h_gap=25, w_gap=400 h_mag (mm) @ w_mag=100, h_gap=25, w_gap=400 w_gap (mm) @ w_mag=100, h_gap=25, w_gap=400 h_gap (mm) @ w_mag=100, h_gap=25, w_gap=400 mag_ef (1) @ w_mag=100, h_gap=25, w_gap=400 est_ef (1) @ w_mag=100, h_gap=25, w_gap=400 w_mag (mm) @ w_mag=100, h_gap=50, w_gap=150 h_mag (mm) @ w_mag=100, h_gap=50, w_gap=150 w_gap (mm) @ w_mag=100, h_gap=50, w_gap=150 h_gap (mm) @ w_mag=100, h_gap=50, w_gap=150 mag_ef (1) @ w_mag=100, h_gap=50, w_gap=150 est_ef (1) @ w_mag=100, h_gap=50, w_gap=150 w_mag (mm) @ w_mag=100, h_gap=50, w_gap=200 h_mag (mm) @ w_mag=100, h_gap=50, w_gap=200 w_gap (mm) @ w_mag=100, h_gap=50, w_gap=200 h_gap (mm) @ w_mag=100, h_gap=50, w_gap=200 mag_ef (1) @ w_mag=100, h_gap=50, w_gap=200 est_ef (1) @ w_mag=100, h_gap=50, w_gap=200 w_mag (mm) @ w_mag=100, h_gap=50, w_gap=400 h_mag (mm) @ w_mag=100, h_gap=50, w_gap=400 w_gap (mm) @ w_mag=100, h_gap=50, w_gap=400 h_gap (mm) @ w_mag=100, h_gap=50, w_gap=400 mag_ef (1) @ w_mag=100, h_gap=50, w_gap=400 est_ef (1) @ w_mag=100, h_gap=50, w_gap=400 w_mag (mm) @ w_mag=125, h_gap=25, w_gap=150 h_mag (mm) @ w_mag=125, h_gap=25, w_gap=150 w_gap (mm) @ w_mag=125, h_gap=25, w_gap=150 h_gap (mm) @ w_mag=125, h_gap=25, w_gap=150 mag_ef (1) @ w_mag=125, h_gap=25, w_gap=150 est_ef (1) @ w_mag=125, h_gap=25, w_gap=150 w_mag (mm) @ w_mag=125, h_gap=25, w_gap=200 h_mag (mm) @ w_mag=125, h_gap=25, w_gap=200 w_gap (mm) @ w_mag=125, h_gap=25, w_gap=200 h_gap (mm) @ w_mag=125, h_gap=25, w_gap=200 mag_ef (1) @ w_mag=125, h_gap=25, w_gap=200 est_ef (1) @ w_mag=125, h_gap=25, w_gap=200 w_mag (mm) @ w_mag=125, h_gap=25, w_gap=400 h_mag (mm) @ w_mag=125, h_gap=25, w_gap=400 w_gap (mm) @ w_mag=125, h_gap=25, w_gap=400 h_gap (mm) @ w_mag=125, h_gap=25, w_gap=400 mag_ef (1) @ w_mag=125, h_gap=25, w_gap=400 est_ef (1) @ w_mag=125, h_gap=25, w_gap=400 w_mag (mm) @ w_mag=125, h_gap=50, w_gap=150 h_mag (mm) @ w_mag=125, h_gap=50, w_gap=150 w_gap (mm) @ w_mag=125, h_gap=50, w_gap=150 h_gap (mm) @ w_mag=125, h_gap=50, w_gap=150 mag_ef (1) @ w_mag=125, h_gap=50, w_gap=150 est_ef (1) @ w_mag=125, h_gap=50, w_gap=150 w_mag (mm) @ w_mag=125, h_gap=50, w_gap=200 h_mag (mm) @ w_mag=125, h_gap=50, w_gap=200 w_gap (mm) @ w_mag=125, h_gap=50, w_gap=200 h_gap (mm) @ w_mag=125, h_gap=50, w_gap=200 mag_ef (1) @ w_mag=125, h_gap=50, w_gap=200 est_ef (1) @ w_mag=125, h_gap=50, w_gap=200 w_mag (mm) @ w_mag=125, h_gap=50, w_gap=400 h_mag (mm) @ w_mag=125, h_gap=50, w_gap=400 w_gap (mm) @ w_mag=125, h_gap=50, w_gap=400 h_gap (mm) @ w_mag=125, h_gap=50, w_gap=400 mag_ef (1) @ w_mag=125, h_gap=50, w_gap=400 est_ef (1) @ w_mag=125, h_gap=50, w_gap=400 w_mag (mm) @ w_mag=150, h_gap=25, w_gap=150 h_mag (mm) @ w_mag=150, h_gap=25, w_gap=150 w_gap (mm) @ w_mag=150, h_gap=25, w_gap=150 h_gap (mm) @ w_mag=150, h_gap=25, w_gap=150 mag_ef (1) @ w_mag=150, h_gap=25, w_gap=150 est_ef (1) @ w_mag=150, h_gap=25, w_gap=150 w_mag (mm) @ w_mag=150, h_gap=25, w_gap=200 h_mag (mm) @ w_mag=150, h_gap=25, w_gap=200 w_gap (mm) @ w_mag=150, h_gap=25, w_gap=200 h_gap (mm) @ w_mag=150, h_gap=25, w_gap=200 mag_ef (1) @ w_mag=150, h_gap=25, w_gap=200 est_ef (1) @ w_mag=150, h_gap=25, w_gap=200 w_mag (mm) @ w_mag=150, h_gap=25, w_gap=400 h_mag (mm) @ w_mag=150, h_gap=25, w_gap=400 w_gap (mm) @ w_mag=150, h_gap=25, w_gap=400 h_gap (mm) @ w_mag=150, h_gap=25, w_gap=400 mag_ef (1) @ w_mag=150, h_gap=25, w_gap=400 est_ef (1) @ w_mag=150, h_gap=25, w_gap=400 w_mag (mm) @ w_mag=150, h_gap=50, w_gap=150 h_mag (mm) @ w_mag=150, h_gap=50, w_gap=150 w_gap (mm) @ w_mag=150, h_gap=50, w_gap=150 h_gap (mm) @ w_mag=150, h_gap=50, w_gap=150 mag_ef (1) @ w_mag=150, h_gap=50, w_gap=150 est_ef (1) @ w_mag=150, h_gap=50, w_gap=150 w_mag (mm) @ w_mag=150, h_gap=50, w_gap=200 h_mag (mm) @ w_mag=150, h_gap=50, w_gap=200 w_gap (mm) @ w_mag=150, h_gap=50, w_gap=200 h_gap (mm) @ w_mag=150, h_gap=50, w_gap=200 mag_ef (1) @ w_mag=150, h_gap=50, w_gap=200 est_ef (1) @ w_mag=150, h_gap=50, w_gap=200 w_mag (mm) @ w_mag=150, h_gap=50, w_gap=400 h_mag (mm) @ w_mag=150, h_gap=50, w_gap=400 w_gap (mm) @ w_mag=150, h_gap=50, w_gap=400 h_gap (mm) @ w_mag=150, h_gap=50, w_gap=400 mag_ef (1) @ w_mag=150, h_gap=50, w_gap=400 est_ef (1) @ w_mag=150, h_gap=50, w_gap=400 w_mag (mm) @ w_mag=175, h_gap=25, w_gap=150 h_mag (mm) @ w_mag=175, h_gap=25, w_gap=150 w_gap (mm) @ w_mag=175, h_gap=25, w_gap=150 h_gap (mm) @ w_mag=175, h_gap=25, w_gap=150 mag_ef (1) @ w_mag=175, h_gap=25, w_gap=150 est_ef (1) @ w_mag=175, h_gap=25, w_gap=150 w_mag (mm) @ w_mag=175, h_gap=25, w_gap=200 h_mag (mm) @ w_mag=175, h_gap=25, w_gap=200 w_gap (mm) @ w_mag=175, h_gap=25, w_gap=200 h_gap (mm) @ w_mag=175, h_gap=25, w_gap=200 mag_ef (1) @ w_mag=175, h_gap=25, w_gap=200 est_ef (1) @ w_mag=175, h_gap=25, w_gap=200 w_mag (mm) @ w_mag=175, h_gap=25, w_gap=400 h_mag (mm) @ w_mag=175, h_gap=25, w_gap=400 w_gap (mm) @ w_mag=175, h_gap=25, w_gap=400 h_gap (mm) @ w_mag=175, h_gap=25, w_gap=400 mag_ef (1) @ w_mag=175, h_gap=25, w_gap=400 est_ef (1) @ w_mag=175, h_gap=25, w_gap=400 w_mag (mm) @ w_mag=175, h_gap=50, w_gap=150 h_mag (mm) @ w_mag=175, h_gap=50, w_gap=150 w_gap (mm) @ w_mag=175, h_gap=50, w_gap=150 h_gap (mm) @ w_mag=175, h_gap=50, w_gap=150 mag_ef (1) @ w_mag=175, h_gap=50, w_gap=150 est_ef (1) @ w_mag=175, h_gap=50, w_gap=150 w_mag (mm) @ w_mag=175, h_gap=50, w_gap=200 h_mag (mm) @ w_mag=175, h_gap=50, w_gap=200 w_gap (mm) @ w_mag=175, h_gap=50, w_gap=200 h_gap (mm) @ w_mag=175, h_gap=50, w_gap=200 mag_ef (1) @ w_mag=175, h_gap=50, w_gap=200 est_ef (1) @ w_mag=175, h_gap=50, w_gap=200 w_mag (mm) @ w_mag=175, h_gap=50, w_gap=400 h_mag (mm) @ w_mag=175, h_gap=50, w_gap=400 w_gap (mm) @ w_mag=175, h_gap=50, w_gap=400 h_gap (mm) @ w_mag=175, h_gap=50, w_gap=400 mag_ef (1) @ w_mag=175, h_gap=50, w_gap=400 est_ef (1) @ w_mag=175, h_gap=50, w_gap=400 w_mag (mm) @ w_mag=200, h_gap=25, w_gap=150 h_mag (mm) @ w_mag=200, h_gap=25, w_gap=150 w_gap (mm) @ w_mag=200, h_gap=25, w_gap=150 h_gap (mm) @ w_mag=200, h_gap=25, w_gap=150 mag_ef (1) @ w_mag=200, h_gap=25, w_gap=150 est_ef (1) @ w_mag=200, h_gap=25, w_gap=150 w_mag (mm) @ w_mag=200, h_gap=25, w_gap=200 h_mag (mm) @ w_mag=200, h_gap=25, w_gap=200 w_gap (mm) @ w_mag=200, h_gap=25, w_gap=200 h_gap (mm) @ w_mag=200, h_gap=25, w_gap=200 mag_ef (1) @ w_mag=200, h_gap=25, w_gap=200 est_ef (1) @ w_mag=200, h_gap=25, w_gap=200 w_mag (mm) @ w_mag=200, h_gap=25, w_gap=400 h_mag (mm) @ w_mag=200, h_gap=25, w_gap=400 w_gap (mm) @ w_mag=200, h_gap=25, w_gap=400 h_gap (mm) @ w_mag=200, h_gap=25, w_gap=400 mag_ef (1) @ w_mag=200, h_gap=25, w_gap=400 est_ef (1) @ w_mag=200, h_gap=25, w_gap=400 w_mag (mm) @ w_mag=200, h_gap=50, w_gap=150 h_mag (mm) @ w_mag=200, h_gap=50, w_gap=150 w_gap (mm) @ w_mag=200, h_gap=50, w_gap=150 h_gap (mm) @ w_mag=200, h_gap=50, w_gap=150 mag_ef (1) @ w_mag=200, h_gap=50, w_gap=150 est_ef (1) @ w_mag=200, h_gap=50, w_gap=150 w_mag (mm) @ w_mag=200, h_gap=50, w_gap=200 h_mag (mm) @ w_mag=200, h_gap=50, w_gap=200 w_gap (mm) @ w_mag=200, h_gap=50, w_gap=200 h_gap (mm) @ w_mag=200, h_gap=50, w_gap=200 mag_ef (1) @ w_mag=200, h_gap=50, w_gap=200 est_ef (1) @ w_mag=200, h_gap=50, w_gap=200 w_mag (mm) @ w_mag=200, h_gap=50, w_gap=400 h_mag (mm) @ w_mag=200, h_gap=50, w_gap=400 w_gap (mm) @ w_mag=200, h_gap=50, w_gap=400 h_gap (mm) @ w_mag=200, h_gap=50, w_gap=400 mag_ef (1) @ w_mag=200, h_gap=50, w_gap=400 est_ef (1) @ w_mag=200, h_gap=50, w_gap=400 w_mag (mm) @ w_mag=225, h_gap=25, w_gap=150 h_mag (mm) @ w_mag=225, h_gap=25, w_gap=150 w_gap (mm) @ w_mag=225, h_gap=25, w_gap=150 h_gap (mm) @ w_mag=225, h_gap=25, w_gap=150 mag_ef (1) @ w_mag=225, h_gap=25, w_gap=150 est_ef (1) @ w_mag=225, h_gap=25, w_gap=150 w_mag (mm) @ w_mag=225, h_gap=25, w_gap=200 h_mag (mm) @ w_mag=225, h_gap=25, w_gap=200 w_gap (mm) @ w_mag=225, h_gap=25, w_gap=200 h_gap (mm) @ w_mag=225, h_gap=25, w_gap=200 mag_ef (1) @ w_mag=225, h_gap=25, w_gap=200 est_ef (1) @ w_mag=225, h_gap=25, w_gap=200 w_mag (mm) @ w_mag=225, h_gap=25, w_gap=400 h_mag (mm) @ w_mag=225, h_gap=25, w_gap=400 w_gap (mm) @ w_mag=225, h_gap=25, w_gap=400 h_gap (mm) @ w_mag=225, h_gap=25, w_gap=400 mag_ef (1) @ w_mag=225, h_gap=25, w_gap=400 est_ef (1) @ w_mag=225, h_gap=25, w_gap=400 w_mag (mm) @ w_mag=225, h_gap=50, w_gap=150 h_mag (mm) @ w_mag=225, h_gap=50, w_gap=150 w_gap (mm) @ w_mag=225, h_gap=50, w_gap=150 h_gap (mm) @ w_mag=225, h_gap=50, w_gap=150 mag_ef (1) @ w_mag=225, h_gap=50, w_gap=150 est_ef (1) @ w_mag=225, h_gap=50, w_gap=150 w_mag (mm) @ w_mag=225, h_gap=50, w_gap=200 h_mag (mm) @ w_mag=225, h_gap=50, w_gap=200 w_gap (mm) @ w_mag=225, h_gap=50, w_gap=200 h_gap (mm) @ w_mag=225, h_gap=50, w_gap=200 mag_ef (1) @ w_mag=225, h_gap=50, w_gap=200 est_ef (1) @ w_mag=225, h_gap=50, w_gap=200 w_mag (mm) @ w_mag=225, h_gap=50, w_gap=400 h_mag (mm) @ w_mag=225, h_gap=50, w_gap=400 w_gap (mm) @ w_mag=225, h_gap=50, w_gap=400 h_gap (mm) @ w_mag=225, h_gap=50, w_gap=400 mag_ef (1) @ w_mag=225, h_gap=50, w_gap=400 est_ef (1) @ w_mag=225, h_gap=50, w_gap=400 w_mag (mm) @ w_mag=250, h_gap=25, w_gap=150 h_mag (mm) @ w_mag=250, h_gap=25, w_gap=150 w_gap (mm) @ w_mag=250, h_gap=25, w_gap=150 h_gap (mm) @ w_mag=250, h_gap=25, w_gap=150 mag_ef (1) @ w_mag=250, h_gap=25, w_gap=150 est_ef (1) @ w_mag=250, h_gap=25, w_gap=150 w_mag (mm) @ w_mag=250, h_gap=25, w_gap=200 h_mag (mm) @ w_mag=250, h_gap=25, w_gap=200 w_gap (mm) @ w_mag=250, h_gap=25, w_gap=200 h_gap (mm) @ w_mag=250, h_gap=25, w_gap=200 mag_ef (1) @ w_mag=250, h_gap=25, w_gap=200 est_ef (1) @ w_mag=250, h_gap=25, w_gap=200 w_mag (mm) @ w_mag=250, h_gap=25, w_gap=400 h_mag (mm) @ w_mag=250, h_gap=25, w_gap=400 w_gap (mm) @ w_mag=250, h_gap=25, w_gap=400 h_gap (mm) @ w_mag=250, h_gap=25, w_gap=400 mag_ef (1) @ w_mag=250, h_gap=25, w_gap=400 est_ef (1) @ w_mag=250, h_gap=25, w_gap=400 w_mag (mm) @ w_mag=250, h_gap=50, w_gap=150 h_mag (mm) @ w_mag=250, h_gap=50, w_gap=150 w_gap (mm) @ w_mag=250, h_gap=50, w_gap=150 h_gap (mm) @ w_mag=250, h_gap=50, w_gap=150 mag_ef (1) @ w_mag=250, h_gap=50, w_gap=150 est_ef (1) @ w_mag=250, h_gap=50, w_gap=150 w_mag (mm) @ w_mag=250, h_gap=50, w_gap=200 h_mag (mm) @ w_mag=250, h_gap=50, w_gap=200 w_gap (mm) @ w_mag=250, h_gap=50, w_gap=200 h_gap (mm) @ w_mag=250, h_gap=50, w_gap=200 mag_ef (1) @ w_mag=250, h_gap=50, w_gap=200 est_ef (1) @ w_mag=250, h_gap=50, w_gap=200 w_mag (mm) @ w_mag=250, h_gap=50, w_gap=400 h_mag (mm) @ w_mag=250, h_gap=50, w_gap=400 w_gap (mm) @ w_mag=250, h_gap=50, w_gap=400 h_gap (mm) @ w_mag=250, h_gap=50, w_gap=400 mag_ef (1) @ w_mag=250, h_gap=50, w_gap=400 est_ef (1) @ w_mag=250, h_gap=50, w_gap=400 w_mag (mm) @ w_mag=275, h_gap=25, w_gap=150 h_mag (mm) @ w_mag=275, h_gap=25, w_gap=150 w_gap (mm) @ w_mag=275, h_gap=25, w_gap=150 h_gap (mm) @ w_mag=275, h_gap=25, w_gap=150 mag_ef (1) @ w_mag=275, h_gap=25, w_gap=150 est_ef (1) @ w_mag=275, h_gap=25, w_gap=150 w_mag (mm) @ w_mag=275, h_gap=25, w_gap=200 h_mag (mm) @ w_mag=275, h_gap=25, w_gap=200 w_gap (mm) @ w_mag=275, h_gap=25, w_gap=200 h_gap (mm) @ w_mag=275, h_gap=25, w_gap=200 mag_ef (1) @ w_mag=275, h_gap=25, w_gap=200 est_ef (1) @ w_mag=275, h_gap=25, w_gap=200 w_mag (mm) @ w_mag=275, h_gap=25, w_gap=400 h_mag (mm) @ w_mag=275, h_gap=25, w_gap=400 w_gap (mm) @ w_mag=275, h_gap=25, w_gap=400 h_gap (mm) @ w_mag=275, h_gap=25, w_gap=400 mag_ef (1) @ w_mag=275, h_gap=25, w_gap=400 est_ef (1) @ w_mag=275, h_gap=25, w_gap=400 w_mag (mm) @ w_mag=275, h_gap=50, w_gap=150 h_mag (mm) @ w_mag=275, h_gap=50, w_gap=150 w_gap (mm) @ w_mag=275, h_gap=50, w_gap=150 h_gap (mm) @ w_mag=275, h_gap=50, w_gap=150 mag_ef (1) @ w_mag=275, h_gap=50, w_gap=150 est_ef (1) @ w_mag=275, h_gap=50, w_gap=150 w_mag (mm) @ w_mag=275, h_gap=50, w_gap=200 h_mag (mm) @ w_mag=275, h_gap=50, w_gap=200 w_gap (mm) @ w_mag=275, h_gap=50, w_gap=200 h_gap (mm) @ w_mag=275, h_gap=50, w_gap=200 mag_ef (1) @ w_mag=275, h_gap=50, w_gap=200 est_ef (1) @ w_mag=275, h_gap=50, w_gap=200 w_mag (mm) @ w_mag=275, h_gap=50, w_gap=400 h_mag (mm) @ w_mag=275, h_gap=50, w_gap=400 w_gap (mm) @ w_mag=275, h_gap=50, w_gap=400 h_gap (mm) @ w_mag=275, h_gap=50, w_gap=400 mag_ef (1) @ w_mag=275, h_gap=50, w_gap=400 est_ef (1) @ w_mag=275, h_gap=50, w_gap=400 w_mag (mm) @ w_mag=300, h_gap=25, w_gap=150 h_mag (mm) @ w_mag=300, h_gap=25, w_gap=150 w_gap (mm) @ w_mag=300, h_gap=25, w_gap=150 h_gap (mm) @ w_mag=300, h_gap=25, w_gap=150 mag_ef (1) @ w_mag=300, h_gap=25, w_gap=150 est_ef (1) @ w_mag=300, h_gap=25, w_gap=150 w_mag (mm) @ w_mag=300, h_gap=25, w_gap=200 h_mag (mm) @ w_mag=300, h_gap=25, w_gap=200 w_gap (mm) @ w_mag=300, h_gap=25, w_gap=200 h_gap (mm) @ w_mag=300, h_gap=25, w_gap=200 mag_ef (1) @ w_mag=300, h_gap=25, w_gap=200 est_ef (1) @ w_mag=300, h_gap=25, w_gap=200 w_mag (mm) @ w_mag=300, h_gap=25, w_gap=400 h_mag (mm) @ w_mag=300, h_gap=25, w_gap=400 w_gap (mm) @ w_mag=300, h_gap=25, w_gap=400 h_gap (mm) @ w_mag=300, h_gap=25, w_gap=400 mag_ef (1) @ w_mag=300, h_gap=25, w_gap=400 est_ef (1) @ w_mag=300, h_gap=25, w_gap=400 w_mag (mm) @ w_mag=300, h_gap=50, w_gap=150 h_mag (mm) @ w_mag=300, h_gap=50, w_gap=150 w_gap (mm) @ w_mag=300, h_gap=50, w_gap=150 h_gap (mm) @ w_mag=300, h_gap=50, w_gap=150 mag_ef (1) @ w_mag=300, h_gap=50, w_gap=150 est_ef (1) @ w_mag=300, h_gap=50, w_gap=150 w_mag (mm) @ w_mag=300, h_gap=50, w_gap=200 h_mag (mm) @ w_mag=300, h_gap=50, w_gap=200 w_gap (mm) @ w_mag=300, h_gap=50, w_gap=200 h_gap (mm) @ w_mag=300, h_gap=50, w_gap=200 mag_ef (1) @ w_mag=300, h_gap=50, w_gap=200 est_ef (1) @ w_mag=300, h_gap=50, w_gap=200 w_mag (mm) @ w_mag=300, h_gap=50, w_gap=400 h_mag (mm) @ w_mag=300, h_gap=50, w_gap=400 w_gap (mm) @ w_mag=300, h_gap=50, w_gap=400 h_gap (mm) @ w_mag=300, h_gap=50, w_gap=400 mag_ef (1) @ w_mag=300, h_gap=50, w_gap=400 est_ef (1) @ w_mag=300, h_gap=50, w_gap=400 w_mag (mm) @ w_mag=325, h_gap=25, w_gap=150 h_mag (mm) @ w_mag=325, h_gap=25, w_gap=150 w_gap (mm) @ w_mag=325, h_gap=25, w_gap=150 h_gap (mm) @ w_mag=325, h_gap=25, w_gap=150 mag_ef (1) @ w_mag=325, h_gap=25, w_gap=150 est_ef (1) @ w_mag=325, h_gap=25, w_gap=150 w_mag (mm) @ w_mag=325, h_gap=25, w_gap=200 h_mag (mm) @ w_mag=325, h_gap=25, w_gap=200 w_gap (mm) @ w_mag=325, h_gap=25, w_gap=200 h_gap (mm) @ w_mag=325, h_gap=25, w_gap=200 mag_ef (1) @ w_mag=325, h_gap=25, w_gap=200 est_ef (1) @ w_mag=325, h_gap=25, w_gap=200 w_mag (mm) @ w_mag=325, h_gap=25, w_gap=400 h_mag (mm) @ w_mag=325, h_gap=25, w_gap=400 w_gap (mm) @ w_mag=325, h_gap=25, w_gap=400 h_gap (mm) @ w_mag=325, h_gap=25, w_gap=400 mag_ef (1) @ w_mag=325, h_gap=25, w_gap=400 est_ef (1) @ w_mag=325, h_gap=25, w_gap=400 w_mag (mm) @ w_mag=325, h_gap=50, w_gap=150 h_mag (mm) @ w_mag=325, h_gap=50, w_gap=150 w_gap (mm) @ w_mag=325, h_gap=50, w_gap=150 h_gap (mm) @ w_mag=325, h_gap=50, w_gap=150 mag_ef (1) @ w_mag=325, h_gap=50, w_gap=150 est_ef (1) @ w_mag=325, h_gap=50, w_gap=150 w_mag (mm) @ w_mag=325, h_gap=50, w_gap=200 h_mag (mm) @ w_mag=325, h_gap=50, w_gap=200 w_gap (mm) @ w_mag=325, h_gap=50, w_gap=200 h_gap (mm) @ w_mag=325, h_gap=50, w_gap=200 mag_ef (1) @ w_mag=325, h_gap=50, w_gap=200 est_ef (1) @ w_mag=325, h_gap=50, w_gap=200 w_mag (mm) @ w_mag=325, h_gap=50, w_gap=400 h_mag (mm) @ w_mag=325, h_gap=50, w_gap=400 w_gap (mm) @ w_mag=325, h_gap=50, w_gap=400 h_gap (mm) @ w_mag=325, h_gap=50, w_gap=400 mag_ef (1) @ w_mag=325, h_gap=50, w_gap=400 est_ef (1) @ w_mag=325, h_gap=50, w_gap=400 w_mag (mm) @ w_mag=350, h_gap=25, w_gap=150 h_mag (mm) @ w_mag=350, h_gap=25, w_gap=150 w_gap (mm) @ w_mag=350, h_gap=25, w_gap=150 h_gap (mm) @ w_mag=350, h_gap=25, w_gap=150 mag_ef (1) @ w_mag=350, h_gap=25, w_gap=150 est_ef (1) @ w_mag=350, h_gap=25, w_gap=150 w_mag (mm) @ w_mag=350, h_gap=25, w_gap=200 h_mag (mm) @ w_mag=350, h_gap=25, w_gap=200 w_gap (mm) @ w_mag=350, h_gap=25, w_gap=200 h_gap (mm) @ w_mag=350, h_gap=25, w_gap=200 mag_ef (1) @ w_mag=350, h_gap=25, w_gap=200 est_ef (1) @ w_mag=350, h_gap=25, w_gap=200 w_mag (mm) @ w_mag=350, h_gap=25, w_gap=400 h_mag (mm) @ w_mag=350, h_gap=25, w_gap=400 w_gap (mm) @ w_mag=350, h_gap=25, w_gap=400 h_gap (mm) @ w_mag=350, h_gap=25, w_gap=400 mag_ef (1) @ w_mag=350, h_gap=25, w_gap=400 est_ef (1) @ w_mag=350, h_gap=25, w_gap=400 w_mag (mm) @ w_mag=350, h_gap=50, w_gap=150 h_mag (mm) @ w_mag=350, h_gap=50, w_gap=150 w_gap (mm) @ w_mag=350, h_gap=50, w_gap=150 h_gap (mm) @ w_mag=350, h_gap=50, w_gap=150 mag_ef (1) @ w_mag=350, h_gap=50, w_gap=150 est_ef (1) @ w_mag=350, h_gap=50, w_gap=150 w_mag (mm) @ w_mag=350, h_gap=50, w_gap=200 h_mag (mm) @ w_mag=350, h_gap=50, w_gap=200 w_gap (mm) @ w_mag=350, h_gap=50, w_gap=200 h_gap (mm) @ w_mag=350, h_gap=50, w_gap=200 mag_ef (1) @ w_mag=350, h_gap=50, w_gap=200 est_ef (1) @ w_mag=350, h_gap=50, w_gap=200 w_mag (mm) @ w_mag=350, h_gap=50, w_gap=400 h_mag (mm) @ w_mag=350, h_gap=50, w_gap=400 w_gap (mm) @ w_mag=350, h_gap=50, w_gap=400 h_gap (mm) @ w_mag=350, h_gap=50, w_gap=400 mag_ef (1) @ w_mag=350, h_gap=50, w_gap=400 est_ef (1) @ w_mag=350, h_gap=50, w_gap=400 w_mag (mm) @ w_mag=375, h_gap=25, w_gap=150 h_mag (mm) @ w_mag=375, h_gap=25, w_gap=150 w_gap (mm) @ w_mag=375, h_gap=25, w_gap=150 h_gap (mm) @ w_mag=375, h_gap=25, w_gap=150 mag_ef (1) @ w_mag=375, h_gap=25, w_gap=150 est_ef (1) @ w_mag=375, h_gap=25, w_gap=150 w_mag (mm) @ w_mag=375, h_gap=25, w_gap=200 h_mag (mm) @ w_mag=375, h_gap=25, w_gap=200 w_gap (mm) @ w_mag=375, h_gap=25, w_gap=200 h_gap (mm) @ w_mag=375, h_gap=25, w_gap=200 mag_ef (1) @ w_mag=375, h_gap=25, w_gap=200 est_ef (1) @ w_mag=375, h_gap=25, w_gap=200 w_mag (mm) @ w_mag=375, h_gap=25, w_gap=400 h_mag (mm) @ w_mag=375, h_gap=25, w_gap=400 w_gap (mm) @ w_mag=375, h_gap=25, w_gap=400 h_gap (mm) @ w_mag=375, h_gap=25, w_gap=400 mag_ef (1) @ w_mag=375, h_gap=25, w_gap=400 est_ef (1) @ w_mag=375, h_gap=25, w_gap=400 w_mag (mm) @ w_mag=375, h_gap=50, w_gap=150 h_mag (mm) @ w_mag=375, h_gap=50, w_gap=150 w_gap (mm) @ w_mag=375, h_gap=50, w_gap=150 h_gap (mm) @ w_mag=375, h_gap=50, w_gap=150 mag_ef (1) @ w_mag=375, h_gap=50, w_gap=150 est_ef (1) @ w_mag=375, h_gap=50, w_gap=150 w_mag (mm) @ w_mag=375, h_gap=50, w_gap=200 h_mag (mm) @ w_mag=375, h_gap=50, w_gap=200 w_gap (mm) @ w_mag=375, h_gap=50, w_gap=200 h_gap (mm) @ w_mag=375, h_gap=50, w_gap=200 mag_ef (1) @ w_mag=375, h_gap=50, w_gap=200 est_ef (1) @ w_mag=375, h_gap=50, w_gap=200 w_mag (mm) @ w_mag=375, h_gap=50, w_gap=400 h_mag (mm) @ w_mag=375, h_gap=50, w_gap=400 w_gap (mm) @ w_mag=375, h_gap=50, w_gap=400 h_gap (mm) @ w_mag=375, h_gap=50, w_gap=400 mag_ef (1) @ w_mag=375, h_gap=50, w_gap=400 est_ef (1) @ w_mag=375, h_gap=50, w_gap=400 w_mag (mm) @ w_mag=400, h_gap=25, w_gap=150 h_mag (mm) @ w_mag=400, h_gap=25, w_gap=150 w_gap (mm) @ w_mag=400, h_gap=25, w_gap=150 h_gap (mm) @ w_mag=400, h_gap=25, w_gap=150 mag_ef (1) @ w_mag=400, h_gap=25, w_gap=150 est_ef (1) @ w_mag=400, h_gap=25, w_gap=150 w_mag (mm) @ w_mag=400, h_gap=25, w_gap=200 h_mag (mm) @ w_mag=400, h_gap=25, w_gap=200 w_gap (mm) @ w_mag=400, h_gap=25, w_gap=200 h_gap (mm) @ w_mag=400, h_gap=25, w_gap=200 mag_ef (1) @ w_mag=400, h_gap=25, w_gap=200 est_ef (1) @ w_mag=400, h_gap=25, w_gap=200 w_mag (mm) @ w_mag=400, h_gap=25, w_gap=400 h_mag (mm) @ w_mag=400, h_gap=25, w_gap=400 w_gap (mm) @ w_mag=400, h_gap=25, w_gap=400 h_gap (mm) @ w_mag=400, h_gap=25, w_gap=400 mag_ef (1) @ w_mag=400, h_gap=25, w_gap=400 est_ef (1) @ w_mag=400, h_gap=25, w_gap=400 w_mag (mm) @ w_mag=400, h_gap=50, w_gap=150 h_mag (mm) @ w_mag=400, h_gap=50, w_gap=150 w_gap (mm) @ w_mag=400, h_gap=50, w_gap=150 h_gap (mm) @ w_mag=400, h_gap=50, w_gap=150 mag_ef (1) @ w_mag=400, h_gap=50, w_gap=150 est_ef (1) @ w_mag=400, h_gap=50, w_gap=150 w_mag (mm) @ w_mag=400, h_gap=50, w_gap=200 h_mag (mm) @ w_mag=400, h_gap=50, w_gap=200 w_gap (mm) @ w_mag=400, h_gap=50, w_gap=200 h_gap (mm) @ w_mag=400, h_gap=50, w_gap=200 mag_ef (1) @ w_mag=400, h_gap=50, w_gap=200 est_ef (1) @ w_mag=400, h_gap=50, w_gap=200 w_mag (mm) @ w_mag=400, h_gap=50, w_gap=400 h_mag (mm) @ w_mag=400, h_gap=50, w_gap=400 w_gap (mm) @ w_mag=400, h_gap=50, w_gap=400 h_gap (mm) @ w_mag=400, h_gap=50, w_gap=400 mag_ef (1) @ w_mag=400, h_gap=50, w_gap=400 est_ef (1) @ w_mag=400, h_gap=50, w_gap=400 w_mag (mm) @ w_mag=425, h_gap=25, w_gap=150 h_mag (mm) @ w_mag=425, h_gap=25, w_gap=150 w_gap (mm) @ w_mag=425, h_gap=25, w_gap=150 h_gap (mm) @ w_mag=425, h_gap=25, w_gap=150 mag_ef (1) @ w_mag=425, h_gap=25, w_gap=150 est_ef (1) @ w_mag=425, h_gap=25, w_gap=150 w_mag (mm) @ w_mag=425, h_gap=25, w_gap=200 h_mag (mm) @ w_mag=425, h_gap=25, w_gap=200 w_gap (mm) @ w_mag=425, h_gap=25, w_gap=200 h_gap (mm) @ w_mag=425, h_gap=25, w_gap=200 mag_ef (1) @ w_mag=425, h_gap=25, w_gap=200 est_ef (1) @ w_mag=425, h_gap=25, w_gap=200 w_mag (mm) @ w_mag=425, h_gap=25, w_gap=400 h_mag (mm) @ w_mag=425, h_gap=25, w_gap=400 w_gap (mm) @ w_mag=425, h_gap=25, w_gap=400 h_gap (mm) @ w_mag=425, h_gap=25, w_gap=400 mag_ef (1) @ w_mag=425, h_gap=25, w_gap=400 est_ef (1) @ w_mag=425, h_gap=25, w_gap=400 w_mag (mm) @ w_mag=425, h_gap=50, w_gap=150 h_mag (mm) @ w_mag=425, h_gap=50, w_gap=150 w_gap (mm) @ w_mag=425, h_gap=50, w_gap=150 h_gap (mm) @ w_mag=425, h_gap=50, w_gap=150 mag_ef (1) @ w_mag=425, h_gap=50, w_gap=150 est_ef (1) @ w_mag=425, h_gap=50, w_gap=150 w_mag (mm) @ w_mag=425, h_gap=50, w_gap=200 h_mag (mm) @ w_mag=425, h_gap=50, w_gap=200 w_gap (mm) @ w_mag=425, h_gap=50, w_gap=200 h_gap (mm) @ w_mag=425, h_gap=50, w_gap=200 mag_ef (1) @ w_mag=425, h_gap=50, w_gap=200 est_ef (1) @ w_mag=425, h_gap=50, w_gap=200 w_mag (mm) @ w_mag=425, h_gap=50, w_gap=400 h_mag (mm) @ w_mag=425, h_gap=50, w_gap=400 w_gap (mm) @ w_mag=425, h_gap=50, w_gap=400 h_gap (mm) @ w_mag=425, h_gap=50, w_gap=400 mag_ef (1) @ w_mag=425, h_gap=50, w_gap=400 est_ef (1) @ w_mag=425, h_gap=50, w_gap=400 w_mag (mm) @ w_mag=450, h_gap=25, w_gap=150 h_mag (mm) @ w_mag=450, h_gap=25, w_gap=150 w_gap (mm) @ w_mag=450, h_gap=25, w_gap=150 h_gap (mm) @ w_mag=450, h_gap=25, w_gap=150 mag_ef (1) @ w_mag=450, h_gap=25, w_gap=150 est_ef (1) @ w_mag=450, h_gap=25, w_gap=150 w_mag (mm) @ w_mag=450, h_gap=25, w_gap=200 h_mag (mm) @ w_mag=450, h_gap=25, w_gap=200 w_gap (mm) @ w_mag=450, h_gap=25, w_gap=200 h_gap (mm) @ w_mag=450, h_gap=25, w_gap=200 mag_ef (1) @ w_mag=450, h_gap=25, w_gap=200 est_ef (1) @ w_mag=450, h_gap=25, w_gap=200 w_mag (mm) @ w_mag=450, h_gap=25, w_gap=400 h_mag (mm) @ w_mag=450, h_gap=25, w_gap=400 w_gap (mm) @ w_mag=450, h_gap=25, w_gap=400 h_gap (mm) @ w_mag=450, h_gap=25, w_gap=400 mag_ef (1) @ w_mag=450, h_gap=25, w_gap=400 est_ef (1) @ w_mag=450, h_gap=25, w_gap=400 w_mag (mm) @ w_mag=450, h_gap=50, w_gap=150 h_mag (mm) @ w_mag=450, h_gap=50, w_gap=150 w_gap (mm) @ w_mag=450, h_gap=50, w_gap=150 h_gap (mm) @ w_mag=450, h_gap=50, w_gap=150 mag_ef (1) @ w_mag=450, h_gap=50, w_gap=150 est_ef (1) @ w_mag=450, h_gap=50, w_gap=150 w_mag (mm) @ w_mag=450, h_gap=50, w_gap=200 h_mag (mm) @ w_mag=450, h_gap=50, w_gap=200 w_gap (mm) @ w_mag=450, h_gap=50, w_gap=200 h_gap (mm) @ w_mag=450, h_gap=50, w_gap=200 mag_ef (1) @ w_mag=450, h_gap=50, w_gap=200 est_ef (1) @ w_mag=450, h_gap=50, w_gap=200 w_mag (mm) @ w_mag=450, h_gap=50, w_gap=400 h_mag (mm) @ w_mag=450, h_gap=50, w_gap=400 w_gap (mm) @ w_mag=450, h_gap=50, w_gap=400 h_gap (mm) @ w_mag=450, h_gap=50, w_gap=400 mag_ef (1) @ w_mag=450, h_gap=50, w_gap=400 est_ef (1) @ w_mag=450, h_gap=50, w_gap=400 w_mag (mm) @ w_mag=475, h_gap=25, w_gap=150 h_mag (mm) @ w_mag=475, h_gap=25, w_gap=150 w_gap (mm) @ w_mag=475, h_gap=25, w_gap=150 h_gap (mm) @ w_mag=475, h_gap=25, w_gap=150 mag_ef (1) @ w_mag=475, h_gap=25, w_gap=150 est_ef (1) @ w_mag=475, h_gap=25, w_gap=150 w_mag (mm) @ w_mag=475, h_gap=25, w_gap=200 h_mag (mm) @ w_mag=475, h_gap=25, w_gap=200 w_gap (mm) @ w_mag=475, h_gap=25, w_gap=200 h_gap (mm) @ w_mag=475, h_gap=25, w_gap=200 mag_ef (1) @ w_mag=475, h_gap=25, w_gap=200 est_ef (1) @ w_mag=475, h_gap=25, w_gap=200 w_mag (mm) @ w_mag=475, h_gap=25, w_gap=400 h_mag (mm) @ w_mag=475, h_gap=25, w_gap=400 w_gap (mm) @ w_mag=475, h_gap=25, w_gap=400 h_gap (mm) @ w_mag=475, h_gap=25, w_gap=400 mag_ef (1) @ w_mag=475, h_gap=25, w_gap=400 est_ef (1) @ w_mag=475, h_gap=25, w_gap=400 w_mag (mm) @ w_mag=475, h_gap=50, w_gap=150 h_mag (mm) @ w_mag=475, h_gap=50, w_gap=150 w_gap (mm) @ w_mag=475, h_gap=50, w_gap=150 h_gap (mm) @ w_mag=475, h_gap=50, w_gap=150 mag_ef (1) @ w_mag=475, h_gap=50, w_gap=150 est_ef (1) @ w_mag=475, h_gap=50, w_gap=150 w_mag (mm) @ w_mag=475, h_gap=50, w_gap=200 h_mag (mm) @ w_mag=475, h_gap=50, w_gap=200 w_gap (mm) @ w_mag=475, h_gap=50, w_gap=200 h_gap (mm) @ w_mag=475, h_gap=50, w_gap=200 mag_ef (1) @ w_mag=475, h_gap=50, w_gap=200 est_ef (1) @ w_mag=475, h_gap=50, w_gap=200 w_mag (mm) @ w_mag=475, h_gap=50, w_gap=400 h_mag (mm) @ w_mag=475, h_gap=50, w_gap=400 w_gap (mm) @ w_mag=475, h_gap=50, w_gap=400 h_gap (mm) @ w_mag=475, h_gap=50, w_gap=400 mag_ef (1) @ w_mag=475, h_gap=50, w_gap=400 est_ef (1) @ w_mag=475, h_gap=50, w_gap=400 w_mag (mm) @ w_mag=500, h_gap=25, w_gap=150 h_mag (mm) @ w_mag=500, h_gap=25, w_gap=150 w_gap (mm) @ w_mag=500, h_gap=25, w_gap=150 h_gap (mm) @ w_mag=500, h_gap=25, w_gap=150 mag_ef (1) @ w_mag=500, h_gap=25, w_gap=150 est_ef (1) @ w_mag=500, h_gap=25, w_gap=150 w_mag (mm) @ w_mag=500, h_gap=25, w_gap=200 h_mag (mm) @ w_mag=500, h_gap=25, w_gap=200 w_gap (mm) @ w_mag=500, h_gap=25, w_gap=200 h_gap (mm) @ w_mag=500, h_gap=25, w_gap=200 mag_ef (1) @ w_mag=500, h_gap=25, w_gap=200 est_ef (1) @ w_mag=500, h_gap=25, w_gap=200 w_mag (mm) @ w_mag=500, h_gap=25, w_gap=400 h_mag (mm) @ w_mag=500, h_gap=25, w_gap=400 w_gap (mm) @ w_mag=500, h_gap=25, w_gap=400 h_gap (mm) @ w_mag=500, h_gap=25, w_gap=400 mag_ef (1) @ w_mag=500, h_gap=25, w_gap=400 est_ef (1) @ w_mag=500, h_gap=25, w_gap=400 w_mag (mm) @ w_mag=500, h_gap=50, w_gap=150 h_mag (mm) @ w_mag=500, h_gap=50, w_gap=150 w_gap (mm) @ w_mag=500, h_gap=50, w_gap=150 h_gap (mm) @ w_mag=500, h_gap=50, w_gap=150 mag_ef (1) @ w_mag=500, h_gap=50, w_gap=150 est_ef (1) @ w_mag=500, h_gap=50, w_gap=150 w_mag (mm) @ w_mag=500, h_gap=50, w_gap=200 h_mag (mm) @ w_mag=500, h_gap=50, w_gap=200 w_gap (mm) @ w_mag=500, h_gap=50, w_gap=200 h_gap (mm) @ w_mag=500, h_gap=50, w_gap=200 mag_ef (1) @ w_mag=500, h_gap=50, w_gap=200 est_ef (1) @ w_mag=500, h_gap=50, w_gap=200 w_mag (mm) @ w_