% Model:              halbach.mph
% Version:            COMSOL 5.3.0.316
% Date:               Jun 21 2021, 06:09
% Dimension:          2
% Nodes:              1000
% Expressions:        2
% Description:        Magnetic flux density norm, 
% Length unit:        m
% X                       Y                        mfnc.normB (T)           atan2(y,x) (rad)
9.82779056315751E-18      -0.1605                  3.736408765525309E-4     -1.5707963267948966
5.047295193416928E-4      -0.16049920637845008     3.7333683701988216E-4    -1.5676515894039158
0.0010094540472288783     -0.16049682552164868     2.870780257276577E-4     -1.564506852012935
0.0015141685922564305     -0.16049285745314096     2.9816100323341003E-4    -1.5613621146219543
0.0020188681631179385     -0.16048730221216864     3.092554506234615E-4     -1.5582173772309735
0.002523547768655076      -0.1604801598536695      3.2036014205685754E-4    -1.5550726398399928
0.0030282024179069614     -0.16047143044827694     3.314740104238093E-4     -1.551927902449012
0.0035328271201595495     -0.16046111408231922     3.425961219232358E-4     -1.548783165058031
0.004037416884994847      -0.16044921085781866     3.5372565534996564E-4    -1.5456384276670503
0.004541966722340474      -0.16043572089249064     3.6486188510916447E-4    -1.5424936902760695
0.005046471642518874      -0.16042064431974226     3.760041672014519E-4     -1.5393489528850888
0.0055509266562966935     -0.1604039812886713      3.8715192759269896E-4    -1.536204215494108
0.006055326774934118      -0.16038573196406458     3.9830465250992607E-4    -1.5330594781031273
0.006559667010234218      -0.1603658965263963      4.094618803025495E-4     -1.5299147407121465
0.007063942374592263      -0.16034447517182635     4.2062319458314063E-4    -1.5267700033211657
0.007568147881045062      -0.16032146811219836     4.3178821841995335E-4    -1.523625265930185
0.008072278543320273      -0.1602968755750375      4.4295660939807496E-4    -1.5204805285392042
0.008576329375885714      -0.16027069780354836     4.541280554020947E-4     -1.5173357911482235
0.009080295393998667      -0.1602429350566125      4.6530227100038604E-4    -1.5141910537572427
0.00958417161375518       -0.16021358760878582     4.7647899433358505E-4    -1.511046316366262
0.010087953052139378      -0.160182655750296       4.8765798442720426E-4    -1.507901578975281
0.010591634727072611      -0.16015013978703943     4.98839018862771E-4      -1.5047568415843002
0.011095211657462937      -0.1601160400405784      5.100218917528935E-4     -1.5016121041933195
0.01159867886325423       -0.16008035684813768     5.212064119751173E-4     -1.4984673668023387
0.012102031365475469      -0.16004309056260146     5.323924016269478E-4     -1.495322629411358
0.012605264186289983      -0.16000424155250959     5.435796946703181E-4     -1.4921778920203772
0.013108372349044675      -0.15996381020205414     5.547681357391354E-4     -1.4890331546293964
0.01361135087831923       -0.1599217969110755      5.659575790874523E-4     -1.4858884172384157
0.014114194799975333      -0.15987820209505843     5.771478876593234E-4     -1.482743679847435
0.014616899141205852      -0.159833026185128       5.883389322642347E-4     -1.4795989424564542
0.01511945893058401       -0.1597862696280453      5.995305908445547E-4     -1.4764542050654734
0.015621869198112566      -0.15973793288620292     6.107227478231013E-4     -1.4733094676744927
0.016124124975272946      -0.15968801643762057     6.219152935208438E-4     -1.470164730283512
0.016626221295074434      -0.1596365207759403      6.331081236362094E-4     -1.467019992892531
0.017128153192103125      -0.15958344641042144     6.443011387783796E-4     -1.4638752555015502
0.01762991570257127       -0.1595287938659358      8.021115626626643E-4     -1.4607305181105694
0.018131503864366204      -0.1594725636829623      8.329429913887981E-4     -1.4575857807195887
0.018632912717099465      -0.15941475641758185     8.639639780314127E-4     -1.454441043328608
0.01913413730215583       -0.1593553726414715      8.951533432928001E-4     -1.4512963059376272
0.019635172662742388      -0.15929441294189917     9.26492695977924E-4      -1.4481515685466464
0.02013601384393752       -0.15923187792171756     9.579660100036031E-4     -1.4450068311556656
0.020636655892739924      -0.15916776819935827     9.89559273118831E-4      -1.4418620937646849
0.021137093858117587      -0.15910208440882578     0.0010212601941967333    -1.4387173563737041
0.021637322791056766      -0.15903482719969114     0.0010530579584813056    -1.4355726189827234
0.02213733774461089       -0.15896599723708535     0.0010849430222039835    -1.4324278815917426
0.022637133773949575      -0.15889559520169308     0.0011169069396214757    -1.4292831442007616
0.023136705936407327      -0.1588236217897458      0.001148942216837683     -1.4261384068097809
0.023636049291532676      -0.1587500777130148      0.0011810421878271288    -1.4229936694188001
0.02413515890113686       -0.15867496369880435     0.0012132009089231353    -1.4198489320278194
0.024634029829342725      -0.15859828048994434     0.001245413068715477     -1.4167041946368386
0.02513265714263352       -0.158520028844783       0.0012776739108516252    -1.4135594572458579
0.025631035909901692      -0.15844020953717944     0.0013099791676795547    -1.410414719854877
0.026129161202497645      -0.15835882335649598     0.001342325003029904     -1.4072699824638963
0.026627028094278495      -0.1582758711075902      0.0013747079627277295    -1.4041252450729156
0.027124631661656778      -0.15819135361080722     0.0014071249316626028    -1.4009805076819348
0.027621966983649125      -0.1581052717019714      0.0014395730964406781    -1.397835770290954
0.02811902914192497       -0.1580176262323782      0.0014720499128021262    -1.3946910328999733
0.028615813220855168      -0.15792841806878563     0.0015045530771191178    -1.3915462955089923
0.029112314307560522      -0.1578376480934058      0.0015370805013979409    -1.3884015581180116
0.02960852749196054       -0.15774531720389617     0.0015696302912990606    -1.3852568207270308
0.030104447866821878      -0.15765142631335058     0.0016022007267627641    -1.38211208333605
0.030600070527806875      -0.15755597635029034     0.001634790244891518     -1.3789673459450693
0.031095390573522085      -0.157458968258655       0.0016673974247909146    -1.3758226085540886
0.031590403105566725      -0.15736040299779294     0.0017000209741152715    -1.3726778711631078
0.032085103228581144      -0.15726028154245209     0.0018843682260334857    -1.369533133772127
0.032579486050295196      -0.15715860488277003     0.0019678525245733778    -1.3663883963811463
0.03307354668157666       -0.15705537402426437     0.002051756929195756     -1.3632436589901655
0.03356728023647956       -0.15695058998782277     0.002059974215746394     -1.3600989215991848
0.03406068183229255       -0.15684425380969283     0.002133945895128994     -1.3569541842082038
0.034553746589586994      -0.15673636654147183     0.0022078900290708587    -1.3538094468172233
0.03504646963226562       -0.15662692925009636     0.0022818068617755766    -1.3506647094262423
0.035538846087610265      -0.15651594301783173     0.0023556966396590406    -1.3475199720352615
0.03603087108633042       -0.15640340894226137     0.0024295596111248924    -1.3443752346442808
0.03652253976261124       -0.15628932813627577     0.0025033960263778944    -1.3412304972533
0.03701384725416166       -0.15617370172806172     0.0025772061372667234    -1.3380857598623193
0.03750478870226253       -0.156056530861091       0.002650990197150869     -1.3349410224713385
0.03799535925181461       -0.15593781669410903     0.002724748460786992     -1.3317962850803577
0.03848555405138663       -0.1558175604011236      0.0027984811842310044    -1.328651547689377
0.03897536825326324       -0.15569576317139308     0.0028721886247530157    -1.3255068102983962
0.039464797013492973      -0.15557242620941475     0.0029458710407629565    -1.3223620729074155
0.0399538354919361        -0.15544755073491287     0.003019528691745044     -1.3192173355164347
0.040442478852312586      -0.15532113798282657     0.0030931618381994557    -1.316072598125454
0.040930722262249815      -0.15519318920329772     0.0031667707415902035    -1.3129278607344732
0.041418560893330486      -0.15506370566165853     0.0032605329429727385    -1.3097831233434922
0.04190598992114018       -0.15493268863841905     0.003399188875813854     -1.3066383859525115
0.04239300452531533       -0.15480013942925439     0.003537956565225938     -1.3034936485615307
0.04287959988959069       -0.15466605934499209     0.0036768222832346616    -1.30034891117055
0.04336577120184704       -0.1545304497115991      0.003815774169621472     -1.2972041737795692
0.04385151365415878       -0.15439331187016855     0.003954801906804657     -1.2940594363885884
0.04433682244284145       -0.15425464717690665     0.004093896460115016     -1.2909146989976077
0.04482169276849923       -0.15411445700311918     0.0042330498686683924    -1.287769961606627
0.04530611983607246       -0.15397274273519793     0.004442924703396227     -1.2846252242156462
0.04579009885488499       -0.15382950577460705     0.0045639334913542525    -1.2814804868246654
0.0462736250386916        -0.15368474753786915     0.004685156407946323     -1.2783357494336847
0.046756693605725354      -0.15353846945655125     0.004806571848136961     -1.2751910120427037
0.04723929977874472       -0.15339067297725079     0.004928160383915092     -1.2720462746517232
0.04772143878508118       -0.153241359561581       0.0050499045098631274    -1.2689015372607422
0.048203105856685934      -0.15309053068615683     0.005171788422948321     -1.2657567998697616
0.0486842962301776        -0.15293818784258012     0.00529379783139179      -1.2626120624787807
0.049165005146888756      -0.15278433253742482     0.00541591978831576      -1.2594673250878
0.04964522785291347       -0.15262896629222222     0.005538142546566737     -1.2563225876968191
0.05012495959915407       -0.15247209064344588     0.00541673735988729      -1.2531778503058384
0.05060419564136815       -0.15231370714249634     0.005686395122552919     -1.2500331129148576
0.051082931240215526      -0.15215381735568587     0.005956122288450713     -1.2468883755238769
0.05156116166130507       -0.15199242286422296     0.0062259122412264885    -1.2437436381328961
0.05203888217524157       -0.15182952526419666     0.006495759168557769     -1.2405989007419151
0.05251608805767235       -0.1516651261665608      0.006765657902171979     -1.2374541633509346
0.05299277458933433       -0.15149922719711809     0.007035603794563414     -1.2343094259599536
0.05346893705610023       -0.15133182999650402     0.007305592622954872     -1.231164688568973
0.0539445707490257        -0.1511629362201706      0.007575620513733091     -1.2280199511779921
0.05441967096439539       -0.15099254753837005     0.007845683882443286     -1.2248752137870114
0.054894233003769846      -0.1508206656361383      0.008115779385731863     -1.2217304763960306
0.05536825217403179       -0.1506472922132782      0.008385903882552358     -1.2185857390050499
0.05584172378743257       -0.1504724289843428      0.008656054402618015     -1.215441001614069
0.056314643161638554      -0.15029607767861847     0.008926228120570586     -1.2122962642230883
0.05678700561977737       -0.15011824004010763     0.009196422334693763     -1.2091515268321076
0.0572588064904842        -0.14993891782751162     0.009412252148705152     -1.2060067894411268
0.05773004110794798       -0.1497581128142133      0.009623304727750515     -1.202862052050146
0.058200704811957535      -0.14957582678825943     0.009834841449698097     -1.1997173146591653
0.05867079294794764       -0.14939206155234305     0.010046836357631104     -1.1965725772681846
0.05914030086704511       -0.14920681892378573     0.010259265667586389     -1.1934278398772038
0.05960922392611471       -0.1490201007345194      0.010472107558469187     -1.1902831024862228
0.06007755748780505       -0.14883190883106848     0.010685341985305253     -1.187138365095242
0.060545296920594585      -0.14864224507453136     0.010898950512932042     -1.1839936277042613
0.06101243759883728       -0.1484511113405622      0.011112916167623057     -1.1808488903132806
0.06147897490280843       -0.14825850951935224     0.011654914112638446     -1.1777041529222998
0.06194490421875027       -0.1480644415156112      0.012082374964812227     -1.174559415531319
0.0624102209389177        -0.14786890924854854     0.01251032885097173      -1.1714146781403383
0.06287492046162378       -0.1476719146518541      0.012938712046767328     -1.1682699407493575
0.06333899819128526       -0.14747345967367947     0.013367468619332386     -1.1651252033583768
0.06380244953846803       -0.14727354627661834     0.013796549234631056     -1.161980465967396
0.06426526991993255       -0.14707217643768725     0.014225910175792215     -1.158835728576415
0.06472745475867898       -0.14686935214830615     0.014655512530452296     -1.1556909911854345
0.06518899948399284       -0.14666507541427842     0.014940896234471594     -1.1525462537944535
0.06564989953148971       -0.14645934825577134     0.015314137300606266     -1.149401516403473
0.06611015034316084       -0.1462521727072958      0.01568739557836408      -1.146256779012492
0.06656974736741784       -0.14604355081768644     0.016060669522541392     -1.1431120416215113
0.06702868605913796       -0.1458334846500814      0.016433957808144932     -1.1399673042305305
0.06748696187970891       -0.14562197628190163     0.01680725930582473      -1.1368225668395497
0.06794457029707378       -0.14540902780483062     0.017180573060499343     -1.133677829448569
0.06840150678577588       -0.1451946413247936      0.01755389827269954      -1.1305330920575882
0.0688577668270034        -0.14497881896193676     0.017927234282233414     -1.1273883546666075
0.06931334590863422       -0.14476156285060623     0.018300580553843388     -1.1242436172756267
0.0697682395252805        -0.14454287513932706     0.018924197201427604     -1.121098879884646
0.07022244317833316       -0.14432275799078179     0.019501259139598083     -1.117954142493665
0.07067595237600639       -0.14410121358178937     0.02007829699191683      -1.1148094051026844
0.07112876263338226       -0.14387824410328326     0.020655303730022865     -1.1116646677117035
0.07158086947245472       -0.14365385176029008     0.021232272794409965     -1.1085199303207227
0.0720322684221742        -0.14342803877190766     0.021809198032529405     -1.105375192929742
0.07248295501849167       -0.14320080737128305     0.022386073646463635     -1.1022304555387612
0.07293292480440285       -0.14297215980559055     0.022898276700447705     -1.0990857181477804
0.07338217332999221       -0.14274209833600943     0.023431504302286625     -1.0959409807567997
0.07383069615247707       -0.14251062523770153     0.023965032835107043     -1.092796243365819
0.07427848883625149       -0.14227774279978883     0.024498848618732774     -1.0896515059748382
0.07472554695293011       -0.14204345332533083     0.025032939195249865     -1.0865067685838576
0.07517186608139201       -0.14180775913130164     0.02556729320229755      -1.0833620311928767
0.07561744180782437       -0.14157066254856723     0.026101900261675103     -1.080217293801896
0.07606226972576613       -0.14133216592186226     0.026636750881155337     -1.0770725564109151
0.0765063454361516        -0.14109227160976695     0.027171836367718624     -1.0739278190199344
0.076949664547354         -0.1408509819846837      0.02770714875069109      -1.0707830816289534
0.07739222267522866       -0.1406082994328138      0.028242680713496577     -1.0676383442379727
0.0778340154431568        -0.1403642263541335      0.0288119429552132       -1.064493606846992
0.07827503848208833       -0.1401187651623707      0.029626030907608254     -1.0613488694560114
0.07871528743058549       -0.13987191828498066     0.03043992618478643      -1.0582041320650304
0.07915475793486565       -0.13962368816312232     0.031253623886069955     -1.0550593946740496
0.07959344564884452       -0.13937407725163398     0.032067119208912455     -1.0519146572830689
0.08003134623417918       -0.13912308801900905     0.032880407437123116     -1.048769919892088
0.08046845536031075       -0.13887072294737174     0.03369348393080817      -1.0456251825011074
0.08090476870450763       -0.1386169845324523      0.034506344117747556     -1.0424804451101264
0.08134028195190773       -0.13836187528356267     0.035318983485971275     -1.0393357077191459
0.08177499079556166       -0.13810539772357128     0.036131397577350365     -1.0361909703281649
0.08220889093647483       -0.13784755438887838     0.03694358198204085      -1.0330462329371843
0.08264197808365047       -0.13758834782939083     0.037755532333655265     -1.0299014955462034
0.08307424795413147       -0.137327780608497       0.03904242163199764      -1.0267567581552228
0.08350569627304343       -0.13706585530304116     0.03979525811573533      -1.0236120207642418
0.08393631877363628       -0.1368025745032984      0.04054844758915503      -1.0204672833732613
0.08436611119732698       -0.13653794081294862     0.04130196977598339      -1.0173225459822803
0.08479506929374127       -0.13627195684905102     0.042055805864708286     -1.0141778085912998
0.08522318882075593       -0.1360046252420181      0.0428099383808568       -1.0110330712003188
0.08565046554454066       -0.13573594863558971     0.04319631231078355      -1.0078883338093378
0.08607689523959988       -0.13546592968680704     0.044276770272888864     -1.0047435964183573
0.08650247368881477       -0.1351945710659859      0.04535748423027559      -1.0015988590273763
0.0869271966834845        -0.13492187545669085     0.04643842119577873      -0.9984541216363957
0.08735106002336844       -0.13464784555570833     0.04751955083918982      -0.9953093842454149
0.0877740595167272        -0.13437248407302008     0.04860084519342464      -0.9921646468544342
0.08819619098036437       -0.1340957937317763      0.04968227839874889      -0.9890199094634534
0.08861745023966779       -0.13381777726826885     0.05076382647944917      -0.9858751720724727
0.08903783312865081       -0.13353843743190397     0.051845467148262        -0.9827304346814918
0.08945733548999357       -0.13325777698517538     0.0529271796346302       -0.979585697290511
0.08987595317508407       -0.13297579870363666     0.054008944533474934     -0.9764409598995303
0.09029368204405916       -0.13269250537587401     0.055090743671689965     -0.9732962225085496
0.09071051796584555       -0.13240789980347853     0.0561725599899862       -0.9701514851175687
0.0911264568182006        -0.13212198480101872     0.05725437743807298      -0.9670067477265881
0.09154149448775319       -0.13183476319601237     0.05833618088145574      -0.9638620103356073
0.0919556268700442        -0.1315462378288988      0.059417956018378786     -0.9607172729446264
0.09236884986956737       -0.13125641155301074     0.06049968930565363      -0.9575725355536456
0.0927811593998095        -0.130965287234546       0.06379418772311782      -0.9544277981626649
0.09319255138329119       -0.13067286775253933     0.06483580171222268      -0.9512830607716842
0.0936030217516069        -0.13037915599883368     0.06587896253587723      -0.9481383233807033
0.09401256644546523       -0.13008415487805186     0.06692359614986669      -0.9449935859897225
0.09442118141472924       -0.12978786730756767     0.06712674180513059      -0.9418488485987417
0.09482886261845627       -0.12949029621747704     0.06880190523057374      -0.938704111207761
0.09523560602493807       -0.12919144455056913     0.07048011647621262      -0.9355593738167802
0.09564140761174059       -0.12889131526229722     0.07216113109366945      -0.9324146364257995
0.09604626336574376       -0.12858991132074937     0.07357305024949563      -0.9292698990348188
0.09645016928318123       -0.12828723570661926     0.07529514922367728      -0.9261251616438381
0.09685312136967991       -0.1279832914131765      0.07701774937533871      -0.9229804242528572
0.09725511564029948       -0.12767808144623718     0.07874083101697876      -0.9198356868618763
0.09765614811957185       -0.12737160882413412     0.0804643762335426       -0.9166909494708955
0.09805621484154038       -0.127063876577687       0.0821883686963871       -0.9135462120799148
0.09845531184979923       -0.12675488775017232     0.08391279349998536      -0.9104014746889341
0.09885343519753235       -0.12644464539729341     0.08563763701819377      -0.9072567372979532
0.09925058094755257       -0.1261331525871502      0.08736288677740345      -0.9041119999069724
0.09964674517234062       -0.12582041240020878     0.08908853134430826      -0.9009672625159917
0.10004192395408379       -0.12550642792927108     0.09081456022635997      -0.8978225251250109
0.10043611338471485       -0.12519120227944416     0.09254096378327135      -0.8946777877340302
0.1008293095659506        -0.12487473856810954     0.09426773314816038      -0.8915330503430494
0.10122150860933042       -0.12455703992489243     0.09599486015713275      -0.8883883129520688
0.10161270663625481       -0.1242381094916307      0.09772233728626653      -0.8852435755610879
0.10200289977802365       -0.12391795042234384     0.09945015759510768      -0.8820988381701071
0.10239208417587448       -0.12359656588320177     0.10117831467590116      -0.8789541007791262
0.10278025598102068       -0.12327395905249358     0.10290680260789206      -0.8758093633881454
0.10316741135468957       -0.12295013312059598     0.10463561591611306      -0.8726646259971648
0.10355354646816028       -0.12262509128994183     0.10636474953415209      -0.869519888606184
0.10393865750280175       -0.12229883677498848     0.11152841007154123      -0.8663751512152033
0.1043227406501103        -0.12197137280218597     0.11383579863067876      -0.8632304138242225
0.10470579211174746       -0.12164270260994502     0.11614508814548256      -0.8600856764332415
0.10508780809957748       -0.12131282944860523     0.11845614838190083      -0.8569409390422609
0.10546878483570477       -0.12098175658040271     0.12076885859107392      -0.8537962016512801
0.10584871855251131       -0.12064948727943792     0.12308310663573321      -0.8506514642602994
0.10622760549269383       -0.12031602483164329     0.12539878821044878      -0.8475067268693184
0.10660544190930106       -0.11998137253475073     0.12771580614428366      -0.8443619894783377
0.10698222406577072       -0.11964553369825899     0.1281343204254634       -0.8412172520873568
0.10735794823596649       -0.11930851164340094     0.1311504859984666       -0.8380725146963763
0.1077326107042149        -0.11897030970311072     0.13416718829781105      -0.8349277773053955
0.10810620776534197       -0.11863093122199082     0.1371843384991961       -0.8317830399144148
0.10847873572470998       -0.11829037955627891     0.14020185447282815      -0.8286383025234341
0.10885019089825396       -0.1179486580738148      0.14321966008207732      -0.8254935651324532
0.10922056961251801       -0.11760577015400693     0.14623768456832345      -0.8223488277414724
0.10958986820469183       -0.1172617191877992      0.14925586200992202      -0.8192040903504917
0.10995808302264681       -0.11691650857763718     0.15227413084511296      -0.8160593529595109
0.11032521042497222       -0.11657014173743464     0.15529243345025195      -0.8129146155685301
0.11069124678101104       -0.11622262209253975     0.15831071576604752      -0.8097698781775492
0.11105618847089618       -0.11587395307970118     0.16132892696556603      -0.8066251407865684
0.11142003188558598       -0.11552413814703404     0.16434701915867547      -0.8034804033955878
0.1117827734269001        -0.11517318075398594     0.1673649471283576       -0.8003356660046069
0.11214440950755498       -0.1148210843713027      0.17033209098684782      -0.7971909286136262
0.11250493655119939       -0.11446785248099398     0.17320179495638346      -0.7940461912226454
0.11286435099244976       -0.11411348857629891     0.17607311685206242      -0.7909014538316647
0.11322264927692548       -0.11375799616165154     0.17993123299827166      -0.7877567164406838
0.11357982786128396       -0.11340137875264615     0.18378934543798425      -0.7846119790497031
0.1139358832132558        -0.11304363987600247     0.1876463659994008       -0.7814672416587222
0.11429081181167959       -0.11268478306953092     0.1915022805467642       -0.7783225042677415
0.11464461014653687       -0.11232481188209742     0.1953570749682546       -0.7751777668767607
0.1149972747189867        -0.11196372987358852     0.19921073517531196      -0.77203302948578
0.1153488020414004        -0.11160154061487602     0.2030632471020442       -0.7688882920947994
0.11569918863739591       -0.11123824768778175     0.20691459670472098      -0.7657435547038186
0.11604843104187225       -0.11087385468504204     0.21076476996133545      -0.7625988173128376
0.11639652580104377       -0.11050836521027244     0.2146137528712282       -0.759454079921857
0.11674346947247433       -0.11014178287793172     0.21846153145475794      -0.756309342530876
0.11708925862511124       -0.10977411131328649     0.2223080917530339       -0.7531646051398954
0.11743388983931936       -0.10940535415237501     0.22615341982767204      -0.7500198677489146
0.11777735970691482       -0.10903551504197152     0.23167275933653872      -0.7468751303579336
0.11811966483119861       -0.10866459763955004     0.23368125169276524      -0.743730392966953
0.11846080182699041       -0.10829260561324813     0.23793941990957487      -0.7405856555759721
0.11880076732066196       -0.10791954264183082     0.2421979632096712       -0.7374409181849914
0.11913955795017031       -0.107545412414654       0.24645687637823951      -0.7342961807940107
0.11947717036509124       -0.10717021863162808     0.250716154238636        -0.7311514434030301
0.11981360122665236       -0.10679396500318139     0.25497579164701545      -0.7280067060120492
0.120148847207766         -0.10641665525022342     0.2592357834874697       -0.7248619686210684
0.12048290499306226       -0.10603829310410808     0.2634961246676294       -0.7217172312300877
0.12081577127892174       -0.10565888230659677     0.2677568101146682       -0.7185724938391068
0.12114744277350824       -0.10527842660982138     0.2720178347716701       -0.7154277564481258
0.12147791619680119       -0.10489692977624726     0.2762791935943219       -0.7122830190571452
0.12180718828062827       -0.10451439557863584     0.28054088154789547      -0.7091382816661645
0.12213525576869765       -0.10413082780000746     0.28524126355980006      -0.7059935442751838
0.12246211541663013       -0.10374623023360395     0.2903378792459003       -0.702848806884203
0.12278776399199134       -0.10336060668285106     0.29543314751250216      -0.6997040694932221
0.12311219827432361       -0.10297396096132087     0.3005270407071888       -0.6965593321022413
0.12343541505517784       -0.10258629689269408     0.30561953186525664      -0.6934145947112607
0.12375741113814531       -0.10219761831072223     0.3107105946548849       -0.69026985732028
0.12407818333888919       -0.1018079290591897      0.31580020332764824      -0.6871251199292991
0.12439772848517607       -0.10141723299187579     0.320888332673783        -0.6839803825383184
0.12471604341690731       -0.10102553397251654     0.3259749579816838       -0.6808356451473375
0.12503312498615035       -0.1006328358747666      0.33114086961086886      -0.6776909077563568
0.12534897005716977       -0.1002391425821608      0.33626375017585713      -0.674546170365376
0.12566357550645835       -0.09984445798807587     0.3413870226375814       -0.6714014329743953
0.12597693822276793       -0.09944878599569185     0.34651066603586544      -0.6682566955834144
0.1262890551071402        -0.09905213051795356     0.3516346601329583       -0.6651119581924338
0.12659992307293735       -0.09865449547753181     0.3567589853601304       -0.6619672208014528
0.12690953904587254       -0.09825588480678474     0.3618836227687763       -0.6588224834104722
0.12721789996404043       -0.09785630244771876     0.36715594372622457      -0.6556777460194911
0.1275250027779472        -0.09745575235194974     0.3730657889621738       -0.6525330086285106
0.12783084445054113       -0.09705423848066382     0.3789737639253011       -0.6493882712375298
0.12813542195724217       -0.09665176480457821     0.3848798473675925       -0.6462435338465489
0.12843873228597216       -0.09624833530390214     0.39078401816797953      -0.6430987964555683
0.12874077243718454       -0.09584395396829719     0.39668625532485974      -0.6399540590645875
0.12904153942389396       -0.095438624796838       0.4025865379492936       -0.6368093216736067
0.1293410302717059        -0.09503235179797279     0.4084848452588073       -0.633664584282626
0.129639242018846         -0.09462513898948352     0.4143811565717399       -0.6305198468916451
0.1299361717161894        -0.0942169903984464      0.42027545130209143      -0.6273751095006644
0.13023181642728995       -0.09380791006119181     0.4261677089548074       -0.6242303721096837
0.13052617322840915       -0.09339790202326458     0.4320579091214631       -0.6210856347187028
0.13081923920854507       -0.0929869703393839      0.4379460314763213       -0.6179408973277222
0.1311110114694613        -0.09257511907340321     0.4438239596325504       -0.6147961599367413
0.13140148712571542       -0.09216235229827008     0.44975364126286416      -0.6116514225457604
0.13169066330468757       -0.09174867409598582     0.45562197505672225      -0.6085066851547796
0.13197853714660893       -0.09133408855756524     0.4623537819422441       -0.6053619477637989
0.13226510580458997       -0.09091859978299609     0.46908338258361837      -0.6022172103728183