% Model:              axial_4.mph
% Version:            COMSOL 5.3.0.316
% Date:               Apr 27 2021, 16:25
% Dimension:          2
% Nodes:              11693
% Expressions:        1
% Description:        Magnetic scalar potential
% Length unit:        m
% X                       Y                        Vm (A) @ t=0
-0.3                      0                        0
-0.2967769527686964       0                        0
-0.29792573635061437      0.0021707696447466956    0
-0.3                      0.0031875000000000002    0
-0.2935539055373926       0                        0
-0.29515770610277803      0.0028452309394247075    0
-0.3                      0.0063750000000000005    0
-0.2976664501736929       0.004872519606783064     0
-0.29033085830608873      0                        0
-0.2918088670225496       0.0025784895299382376    0
-0.3                      0.009562500000000002     0
-0.29746006683795656      0.007920501401588429     0
-0.2871078110747849       0                        0
-0.2886513828435893       0.0025493693323405983    0
-0.3                      0.012750000000000001     0
-0.29737496847346767      0.011073563745744244     0
-0.28388476384348105      0                        0
-0.28546126719318626      0.0025466300219934503    0
-0.2806617166121772       0                        0
-0.2822635189980214       0.0025453537740626965    0
-0.27743866938087336      0                        0
-0.2790485481328175       0.002546259278132619     0
-0.3                      0.0159375                0
-0.29736429356434557      0.014238326131959137     0
-0.27421562214956946      0                        0
-0.2758285095695138       0.002548314730952358     0
-0.3                      0.019125000000000003     0
-0.29735816138131077      0.017306664784544547     0
-0.2709925749182656       0                        0
-0.27260723630470435      0.002549232160991244     0
-0.3                      0.022312500000000002     0
-0.2970583106668179       0.020647701066129925     0
-0.29353761698210473      0.02550000000000004      0
-0.29676880849105286      0.02550000000000004      0
-0.29504451928582176      0.02319887600329612      0
-0.2677695276869618       0                        0
-0.2693855541985425       0.0025493673647077604    0
-0.26454648045565793      0                        0
-0.26616263376027804      0.002549415816462093     0
-0.2613234332243541       0                        0
-0.2629384594072212       0.002549520698537785     0
-0.25810038599305024      0                        0
-0.2597140973752911       0.0025495921067422594    0
-0.3                      0.025500000000000023     0
-0.29777432768873846      0.023431815413885223     0
-0.29030642547315666      0.02550000000000004      0
-0.29198714864170006      0.022969555934453052     0
-0.2548773387617464       0                        0
-0.25649035133359005      0.0025497237573663596    0
-0.2870752339642086       0.025500000000000037     0
-0.2887302987192195       0.02292968337650844      0
-0.25165429153044255      0                        0
-0.2532670127578847       0.002550402470169459     0
-0.2838440424552605       0.025500000000000037     0
-0.2854820935763368       0.02292724313018213      0
-0.28061285094631244      0.025500000000000037     0
-0.28224647450235824      0.022921640590160882     0
-0.2484312442991387       0                        0
-0.25004343050943395      0.0025519055213803978    0
-0.27738165943736437      0.025500000000000037     0
-0.2790164493652008       0.02291510828117174      0
-0.24520819706783484      0                        0
-0.24681927819098745      0.0025535575502251373    0
-0.241985149836531        0                        0
-0.24359516091763278      0.002554299412393359     0
-0.2741504679284163       0.025500000000000037     0
-0.2757852623119273       0.022912188538822712     0
-0.23876210260522715      0                        0
-0.24037164955858611      0.002554009933539944     0
-0.23553905537392328      0                        0
-0.23714888292181122      0.002553470604461532     0
-0.2709192764194682       0.025500000000000037     0
-0.2725548349794492       0.022910241986637006     0
-0.26768808491052015      0.025500000000000037     0
-0.26932384559162004      0.022910286490388704     0
-0.2644568934015721       0.025500000000000033     0
-0.2660921492079997       0.02291102648186771      0
-0.23231600814261943      0                        0
-0.23392620857643032      0.002553396975752419     0
-0.261225701892624        0.025500000000000037     0
-0.2628599706722258       0.022911774279877842     0
-0.2290929609113156       0                        0
-0.2307033734620919       0.002553638881615128     0
-0.22586991368001175      0                        0
-0.2274803738553632       0.0025535990287867626    0
-0.2579945103836759       0.025500000000000037     0
-0.25962801936855584      0.022911870286069915     0
-0.2226468664487079       0                        0
-0.2242571295392727       0.002553012749217672     0
-0.21942381921740403      0                        0
-0.2210335057795115       0.0025520942505195747    0
-0.2162007719861002       0                        0
-0.2178101386210822       0.00255093646374736      0
-0.2547633188747278       0.025500000000000033     0
-0.2563967114837324       0.0229114908899113       0
-0.25153212736577973      0.025500000000000033     0
-0.2531660970190704       0.022911107825782293     0
-0.24830093585683166      0.02550000000000003      0
-0.24993623267654863      0.022910545764304232     0
-0.2450697443478836       0.025500000000000033     0
-0.2467067434393769       0.022909573531296665     0
-0.21297772475479632      0                        0
-0.21458733526189425      0.0025498086288625074    0
-0.24183855283893552      0.025500000000000033     0
-0.2434768571155332       0.022908672653166373     0
-0.20975467752349247      0                        0
-0.2113646233257833       0.0025491766065671275    0
-0.20653163029218866      0                        0
-0.20814131144910542      0.0025493416297824555    0
-0.23860736132998742      0.02550000000000003      0
-0.240246094246217        0.022908603342271436     0
-0.20330858306088478      0                        0
-0.20491726638076588      0.002550008876195104     0
-0.20008553582958094      0                        0
-0.2016928168450274       0.0025506254233199585    0
-0.1968624885982771       0                        0
-0.19846841956740843      0.0025507261816179044    0
-0.23537616982103934      0.02550000000000003      0
-0.23701486391821702      0.022909261383747704     0
-0.19363944136697325      0                        0
-0.1952444884078348       0.0025502411481133727    0
-0.23214497831209127      0.02550000000000003      0
-0.23378407731945341      0.02290956553623634      0
-0.22891378680314317      0.02550000000000003      0
-0.23055385351732352      0.02290924661400968      0
-0.1904163941356694       0                        0
-0.19202100437318667      0.0025495817081435854    0
-0.2256825952941951       0.02550000000000003      0
-0.22732329242752972      0.022909361170376254     0
-0.22245140378524703      0.02550000000000003      0
-0.22409184414728903      0.022910398493353423     0
-0.18719334690436557      0                        0
-0.18879710096920743      0.002549358094508992     0
-0.18397029967306172      0                        0
-0.1855722458049448       0.0025495976162320153    0
-0.18074725244175785      0                        0
-0.18234680536062653      0.002549977728447625     0
-0.12605686274509803      0.01927906294431224      0
-0.12605686274509803      0.020351023866524317     0
-0.12694263303116257      0.019793416607309308     0
-0.12605686274509803      0.018093972871362374     0
-0.12703361653036885      0.018673588970501476     0
-0.12605686274509803      0.021322391540657612     0
-0.12685005311386297      0.02080800050155862      0
-0.12605686274509803      0.022202605677945388     0
-0.12677151615247506      0.021730337116793536     0
-0.12605686274509803      0.02299824139761704      0
-0.12669799783793073      0.022553494718036422     0
-0.12605686274509803      0.02371892781336094      0
-0.12663900612314227      0.023321696339112585     0
-0.12605686274509803      0.0167858067244245       0
-0.12713896265112362      0.017427359292016952     0
-0.21922021227629895      0.02550000000000003      0
-0.22086005379028037      0.022911505291401804     0
-0.17752420521045398      0                        0
-0.17912139269641128      0.0025500670811776246    0
-0.12605686274509803      0.024371984723305012     0
-0.12657795595477717      0.024022344850715763     0
-0.12605686274509803      0.02496375850772617      0
-0.12647629156030957      0.024645094432282216     0
-0.12605686274509803      0.025500000000000002     0
-0.12641489355274538      0.025132136907244435     0
-0.12605686274509803      0.015341214287359071     0
-0.12725856845812575      0.01605115550047703      0
-0.21598902076735085      0.02550000000000003      0
-0.21762856898806618      0.022911907165097656     0
-0.2127578292584028       0.02550000000000003      0
-0.21439743615784615      0.02291184617884913      0
-0.17430115797915013      0                        0
-0.17589622229844545      0.002549591152118342     0
-0.1710781107478463       0                        0
-0.1726706914576329       0.0025484647632667       0
-0.16785506351654245      0                        0
-0.16944381765607952      0.0025465314648030726    0
-0.1646320162852386       0                        0
-0.16621535719167202      0.002544051049576304     0
-0.16140896905393476      0                        0
-0.16298286260429662      0.002543671483143282     0
-0.15818592182263091      0                        0
-0.1597482165396148       0.0025494428463902637    0
-0.15496287459132707      0                        0
-0.15651322666262873      0.0025632903797950823    0
-0.15173982736002323      0                        0
-0.1532829021338107       0.0025813450802476897    0
-0.14851678012871938      0                        0
-0.150062294724469        0.002597006645470613     0
-0.14529373289741554      0                        0
-0.1468438432533834       0.002599191174648601     0
-0.1420706856661117       0                        0
-0.1436210559508102       0.002568271270646799     0
-0.12659242933695894      0.025500000000000016     0
-0.12605686274509803      0.01374552088947645      0
-0.12738558891455554      0.01453133423136343      0
-0.13884763843480785      0                        0
-0.1404090049034542       0.0025504484183735522    0
-0.20952663774945474      0.025500000000000026     0
-0.21116629477613846      0.02291201049074054      0
-0.20629544624050666      0.025500000000000023     0
-0.20793493346355663      0.022912473912132598     0
-0.2030642547315586       0.025500000000000026     0
-0.20470360103593346      0.02291270591710776      0
-0.1271832813905906       0.025500000000000016     0
-0.12689202137626232      0.025051831596213762     0
-0.12605686274509803      0.011983574189238644     0
-0.12753203535522117      0.012857207009569577     0
-0.135624591203504        0                        0
-0.13723443692026818      0.0025608863426416694    0
-0.19983306322261052      0.025500000000000026     0
-0.20147273743433028      0.022912243084839527     0
-0.1278351259129827       0.025500000000000016     0
-0.1275144324802819       0.024972485684444136     0
-0.12605686274509803      0.010037719386060564     0
-0.1276835783167288       0.011009279550457053     0
-0.13240154397220016      0                        0
-0.1339933264237329       0.0025247880423945337    0
-0.19660187171366245      0.025500000000000023     0
-0.19824252032607045      0.02291126574275083      0
-0.19337068020471437      0.025500000000000023     0
-0.1950126603507151       0.022910466744706332     0
-0.12855425903397458      0.025500000000000016     0
-0.12822443001211833      0.02492245178529696      0
-0.12605686274509803      0.007888493015768388     0
-0.1278604726909573       0.00897276916471195      0
-0.12917862329799223      0                        0
-0.1307276483454656       0.002726873045995246     0
-0.1901394886957663       0.025500000000000023     0
-0.1917825890575846       0.02291040884199345      0
-0.18690829718681823      0.025500000000000026     0
-0.18855191498930804      0.022910951965744553     0
-0.18367710567787016      0.025500000000000023     0
-0.1853207775443687       0.022911316795540638     0
-0.1293478707438791       0.025500000000000016     0
-0.12898742798049814      0.02486063411639669      0
-0.12605686274509803      0.005515282412613792     0
-0.12805835984626598      0.006686922553684749     0
-0.12605686274509803      0.0028944422978246388    0
-0.12827178622953553      0.0042889222278216866    0
-0.12605686274509803      0                        0
-0.12804431337513442      0.0020292031982118834    0
-0.18044591416892208      0.025500000000000023     0
-0.18208934463437662      0.022910834922767225     0
-0.13022620401639876      0.025500000000000016     0
-0.12982305065632588      0.02479450059513366      0
-0.177214722659974        0.025500000000000023     0
-0.17885716918433758      0.022910023052098355     0
-0.13119520586552086      0.025500000000000016     0
-0.13073558757580467      0.02472075449002021      0
-0.1322642358259919       0.02550000000000002      0
-0.13175580890043018      0.024640757212482264     0
-0.17398353115102597      0.025500000000000023     0
-0.1756237575328374       0.02290994264425517      0
-0.17075233964207787      0.025500000000000023     0
-0.17238880260941222      0.022911128880785277     0
-0.1675211481331298       0.02550000000000002      0
-0.16915161444010907      0.022913403953569625     0
-0.13344597661776036      0.025500000000000016     0
-0.13287562896031213      0.0245417308000135       0
-0.16428995662418172      0.02550000000000002      0
-0.16591095393872518      0.02291624380297161      0
-0.1347503530794855       0.02550000000000002      0
-0.13413120706601792      0.02445042693320698      0
-0.13619028831350827      0.025500000000000016     0
-0.135487638233993        0.024340903721927536     0
-0.16105876511523368      0.025500000000000023     0
-0.16266615330262654      0.02291977225866232      0
-0.1377809429451353       0.025500000000000016     0
-0.1369976641289246       0.0242103464005321       0
-0.13953674247380132      0.02550000000000002      0
-0.1386642524769321       0.024060555044999633     0
-0.15782757360628558      0.025500000000000023     0
-0.15943062319755327      0.022924257526071124     0
-0.1545981157024906       0.02550000000000002      0
-0.1562198512624518       0.022936431335003293     0
-0.15147391167451438      0.02550000000000002      0
-0.1530444159133999       0.022993971874754247     0
-0.14147582538638764      0.025500000000000016     0
-0.14053035906076985      0.02389847712621149      0
-0.14361703158309502      0.02550000000000002      0
-0.14258135531848906      0.023722828347771563     0
-0.1485912457385672       0.025500000000000016     0
-0.15009578365784637      0.023200701595255953     0
-0.14598098715885124      0.02550000000000002      0
-0.14485289673755078      0.02353526736157706      0
-0.1473616993592652       0.023345926974224867     0
-0.29504674720662594      0.0064143757725932445    0
-0.29277007284767353      0.004939865172613861     0
-0.2901444527185912       0.005090782959758443     0
-0.2947666124674723       0.009482549948763101     0
-0.29189831685599454      0.0077829441635414096    0
-0.2947494827647887       0.012606831011914899     0
-0.2870547601324522       0.005079461228489723     0
-0.2887265415469388       0.007605789393656512     0
-0.2920700926660007       0.01109708359719638      0
-0.28976780846614625      0.009850961362607883     0
-0.2947582915001637       0.015667865490104294     0
-0.2921639360219863       0.014082681279131615     0
-0.29496807255653756      0.018223596019073925     0
-0.28386478464515624      0.005079205073807766     0
-0.28547946432500754      0.007603663997986416     0
-0.287055921994137        0.010106897415166922     0
-0.2891401288819073       0.012649293161511713     0
-0.28065705456547935      0.00508307578846002      0
-0.27744005745386374      0.005086753244593977     0
-0.2898167684560705       0.015441007342471549     0
-0.29202390149972823      0.017462266460031007     0
-0.29356847137239195      0.020479043586354873     0
-0.28227157459405877      0.00761250714912023      0
-0.283903053099178        0.010136892386581671     0
-0.28566247598092287      0.012680481971891935     0
-0.28701406541343033      0.015219696371392862     0
-0.279053028867382        0.007618720978002916     0
-0.2742201194844757       0.005088909101235646     0
-0.2758319013988309       0.007621479817930963     0
-0.2887418104633005       0.017791099440290555     0
-0.2903670368878993       0.020328082915630607     0
-0.2806719857778216       0.010151239193553974     0
-0.2823017940672344       0.012696484382236806     0
-0.2838591215358397       0.015266900065073427     0
-0.2854777095609994       0.017799557402101783     0
-0.27744484164457656      0.010153673300881084     0
-0.2709989909741593       0.005089776222084842     0
-0.27261015454509224      0.007622575748779733     0
-0.2742205747437525       0.010154067795881171     0
-0.28712168153830536      0.0203600706175045       0
-0.27905632270838937      0.012696286520152983     0
-0.2806578053012545       0.015247106156166867     0
-0.28225786689285487      0.017800897434027987     0
-0.2838717115222656       0.020358680484321358     0
-0.2758275836494305       0.01269335993250785      0
-0.2677761891659554       0.005090271709682373     0
-0.2693869924978884       0.007623348499227918     0
-0.270995551827886        0.010154371893671119     0
-0.2726016140093641       0.012691124890388103     0
-0.26455137774411497      0.00509083169638326      0
-0.26132584238614004      0.00509122585027245      0
-0.258100853836023        0.005091527281147879     0
-0.2774336151467384       0.015237393439369267     0
-0.27903706308234116      0.017789757695188153     0
-0.2806418966628911       0.02035083046023264      0
-0.27420779593291306      0.015231158963623955     0
-0.2661618231438358       0.007624263160631359     0
-0.2677698760227612       0.010155061622792326     0
-0.2693754074963174       0.012690410544014014     0
-0.27098137034791886      0.015228214410519024     0
-0.2629353746629282       0.007625105303005142     0
-0.259708946460655        0.0076257763093348285    0
-0.2548766336781347       0.0050922490582137195    0
-0.25648333792468087      0.007626479213401834     0
-0.27581189805378487      0.017780408109818038     0
-0.27741460345434577      0.02034184387984775      0
-0.27258502075781527      0.017775109537208022     0
-0.2645427947260463       0.010156120557976375     0
-0.2661480742090668       0.012690973776112467     0
-0.2677535564933115       0.015227989228019476     0
-0.2693566146572327       0.017773739489777205     0
-0.2613150988418785       0.010157147780579641     0
-0.2580878171508825       0.010158001254424178     0
-0.25165241951028         0.005093879444234498     0
-0.2532581982235031       0.007627666366485569     0
-0.25486129213541037      0.010158843429972414     0
-0.2741863164597779       0.0203359998074589       0
-0.2709570595738122       0.020333784567584588     0
-0.2629196100274438       0.012692101992166402     0
-0.26452413648770584      0.015229150481626057     0
-0.2661264744533905       0.017774610766361873     0
-0.26772639592664627      0.020334189420612946     0
-0.25969083026743456      0.012693164575594308     0
-0.25646257946350315      0.012693947792275057     0
-0.24842758552601255      0.005095969632416726     0
-0.25003288884254987      0.007629254786793216     0
-0.25163526164651917      0.010159729325002696     0
-0.253235197693612        0.012694446932769804     0
-0.2612938611351741       0.015230445725056921     0
-0.26289513225757505      0.017775981009602423     0
-0.2644945762154696       0.020335383782331556     0
-0.2580638621544101       0.015231353197634476     0
-0.25483498059816706      0.015231716913070922     0
-0.24520248823196225      0.005097397444961147     0
-0.2419777972366314       0.005097652730718047     0
-0.24680720708429474      0.007630601264062305     0
-0.2484091992971175       0.010160500650524767     0
-0.25000844718334503      0.012694678200164402     0
-0.2516073261855329       0.015231560042863341     0
-0.25966365693054266      0.01777702665553772      0
-0.26126228737543683      0.020336427936503653     0
-0.25643316105318614      0.017777373292429427     0
-0.2532041980032545       0.01777698713787172      0
-0.2435814507920985       0.007631201342492021     0
-0.2387539991152424       0.005097197080201459     0
-0.24035622600433382      0.00763106072118254      0
-0.2451829007623434       0.010160883088842856     0
-0.2467818091375719       0.01269464705846296      0
-0.24838025831862195      0.015231051386045762     0
-0.24997633728843585      0.017776163355326086     0
-0.23553086161905631      0.005096833773228878     0
-0.25803059788151755      0.02033669893395635      0
-0.2548002191566221       0.020336234690712836     0
-0.25157102221478683      0.02033549445730228      0
-0.24195655638671254      0.010160825789172814     0
-0.23713167918406222      0.00763079038779774      0
-0.2387304834606944       0.010160638854408485     0
-0.2435549237917293       0.012694391166875228     0
-0.24515299520049638      0.015230332803788634     0
-0.2467486930487215       0.01777505901375051      0
-0.24834253607312426      0.020334447672459868     0
-0.23230786224704894      0.0050968142038968775    0
-0.23390773453951633      0.007630546900360385     0
-0.24032780946517884      0.012694051418322623     0
-0.2355049721030964       0.010160416198533612     0
-0.23710075967278463      0.012693800550618743     0
-0.24192513088682113      0.01522959380314757      0
-0.24352049714652865      0.01777382504966741      0
-0.2451139963691478       0.020333020954800825     0
-0.2290848761235853       0.005096526573650911     0
-0.23068417051684068      0.007629997080149401     0
-0.23228003995389732      0.01015998465523434      0
-0.2258615437942334       0.005095668130112286     0
-0.23869683210470719      0.015229158010501237     0
-0.2338740936741578       0.012693597008299575     0
-0.23546859158784864      0.015229157370574056     0
-0.24029147331666592      0.01777299208251887      0
-0.24188460904310313      0.020331904342407104     0
-0.227460478087648        0.007629001930693532     0
-0.22905538051587868      0.010159101609734463     0
-0.2306478733696801       0.0126931591202209       0
-0.22263756872561702      0.0050943377576266454    0
-0.2242361096402601       0.007627608114368058     0
-0.21941342588999568      0.0050926522508024       0
-0.2161897056477319       0.0050909002044927975    0
-0.2370619322831228       0.017773055926213272     0
-0.23224082099704157      0.015229193984292249     0
-0.2338325834732776       0.017773544992508463     0
-0.2386542874687779       0.020331881119063283     0
-0.22583042439206344      0.010157789058790511     0
-0.22742183449641654      0.01269226763438413      0
-0.22901360104170096      0.015228708552330284     0
-0.2210110839528399       0.007625952923443479     0
-0.22260491015184117      0.010155943036470738     0
-0.21778593891417616      0.007624218494654827     0
-0.21296627835697093      0.0050898132225893926    0
-0.21456152592011293      0.007622893048846343     0
-0.23542370812268967      0.02033263827361245      0
-0.23060391241121878      0.0177735557084038       0
-0.23219374267297496      0.020332965110972736     0
-0.22419552099662446      0.012691011259877006     0
-0.22578645411970763      0.015227747494662583     0
-0.2273756805160042       0.01777299829152183      0
-0.2193784890808543       0.010154628668195458     0
-0.22096850579365077      0.012689893928686654     0
-0.21615452790318943      0.010153696514657135     0
-0.20974229868315028      0.0050900127577614826    0
-0.21133675447320877      0.00762283985022376      0
-0.2129287556042158       0.010153056518845148     0
-0.2065173927783969       0.005091205468462711     0
-0.2289644451643846       0.020332587064462133     0
-0.22255866840811578      0.015226715208346014     0
-0.2241468545216395       0.017772746751735926     0
-0.22573472824085153      0.020332625755025483     0
-0.21774120445929182      0.012689119749131826     0
-0.2193294558333534       0.015226746244009402     0
-0.2145131404975876       0.01268943523343396      0
-0.20811032181614172      0.007624186185284314     0
-0.20969853390072424      0.010154632379096773     0
-0.21128422184546944      0.012689882479486901     0
-0.20329174811767972      0.005092549919247279     0
-0.20488312099616746      0.007626042111554752     0
-0.20006603313321572      0.0050931802003407484    0
-0.1968410866529554       0.005092620502186346     0
-0.22091672621030012      0.017773258607345587     0
-0.22250381210727935      0.02033365380245698      0
-0.2160994560077606       0.01522732066422028      0
-0.21768571639225087      0.017773948064091383     0
-0.21286956549481664      0.015227585353722442     0
-0.20646990563471632      0.01015645441377725      0
-0.20805478852631373      0.012691071278784133     0
-0.20963954216413042      0.01522831993964019      0
-0.20165612504562216      0.007627278033041065     0
-0.20324166684062436      0.010158053250844913     0
-0.19842998013021784      0.00762716667955787      0
-0.1936168976043644       0.005091453454240167     0
-0.19520475436135654      0.007626039440024717     0
-0.2192721292941853       0.020334852395282023     0
-0.21445456186462905      0.017774371182463083     0
-0.2160404943583791       0.020335415824382554     0
-0.211223668040926        0.01777478123074422      0
-0.20482560585119391      0.0126925028981679       0
-0.20640943285963909      0.015229620819702541     0
-0.207992904552174        0.017775668045481974     0
-0.20001417501066165      0.010158635672719435     0
-0.2015968484937888       0.012693575880382038     0
-0.19678764066489038      0.010158045043840961     0
-0.1903924345890382       0.005090741100022215     0
-0.19197962964089865      0.00762496512452519      0
-0.19356159907190892      0.010156976067875929     0
-0.2128092757303555       0.020335524376539026     0
-0.20957813754434304      0.02033599590662761      0
-0.20317950967919296      0.01523097889511722      0
-0.2047620900634081       0.017776908592331313     0
-0.20634680331866417      0.020336889979979778     0
-0.1983688580969077       0.01269373726191689      0
-0.1999502458995631       0.015231551615342774     0
-0.1951415851700642       0.0126930723027489       0
-0.18716677812021917      0.005090925074065359     0
-0.1887535784825112       0.007624754856287445     0
-0.19033515740052911      0.010156292908632153     0
-0.19191449912319133      0.012692172148280322     0
-0.18394004494124164      0.005091509687687792     0
-0.18071296041437482      0.005091649170761757     0
-0.12833917406674616      0.01682711065683913      0
-0.1285818298055578       0.015394221339961467     0
-0.12812039086647578      0.018126619091534856     0
-0.1277344993849398       0.020348785806520966     0
-0.12792592148215265      0.01929886976416884      0
-0.12756528295707842      0.02130003572982156      0
-0.12741635948480273      0.022156443509245033     0
-0.12727250722514336      0.02295133618233409      0
-0.12717185023080627      0.02368583307261126      0
-0.1288543787027423       0.013811867073578017     0
-0.13003815715434444      0.014848881061800085     0
-0.1304769443257304       0.013211770044941014     0
-0.20153174996166415      0.017777549048649723     0
-0.20311573986950918      0.020337332777737582     0
-0.1967219621806594       0.01523104194590786      0
-0.19830244633806873      0.017777089883337233     0
-0.1934943370527702       0.015229941516628445     0
-0.18552629175144705      0.007625175008267132     0
-0.18710762754594942      0.01015628383992532      0
-0.18868681413702934      0.012691633003613062     0
-0.1902665163751827       0.015229063324719188     0
-0.18229815692292073      0.0076253790762481075    0
-0.177485838378188        0.005091008503420698     0
-0.1790695280128204       0.007624860635853321     0
-0.12966147890834928      0.01631690432459199      0
-0.1293162761356254       0.017649181791490786     0
-0.12901069791571212      0.018867172323434035     0
-0.13157618622956802      0.01443553893307773      0
-0.13216119861177825      0.012741835400561822     0
-0.13107806099043587      0.015923358170574498     0
-0.13312955368670173      0.014200489048758992     0
-0.13370979084922946      0.01285611264882283      0
-0.13702803087068136      0.008044324188056421     0
-0.13480430659454498      0.009599324836606778     0
-0.13671856383214348      0.010463625035873635     0
-0.1352894165293767       0.012010049861607275     0
-0.1419392235258738       0.005089184780803508     0
-0.13876940597632606      0.005160721553979841     0
-0.12843494667555225      0.02094177396392144      0
-0.12871888654838806      0.01995744775631234      0
-0.12818432293083767      0.021814873480889754     0
-0.12796121411230915      0.022619405717738166     0
-0.12774831201281783      0.023374099525684984     0
-0.12763575583844147      0.023939360753766806     0
-0.12717657006425487      0.02438792468579363      0
-0.133216459624101        0.011004517465704026     0
-0.13310254638850588      0.008997143204562274     0
-0.13099258553325088      0.011407886288291754     0
-0.1291554266620617       0.012062040696336457     0
-0.1342476346981745       0.007374691270390219     0
-0.13576265457978431      0.005129360041102091     0